!
! Hittite Microwave Corporation
! 2 Elizabeth Drive
! Chelmsford, MA 01824
! http://www.hittite.com
! Tel: 978-250-3343
! Fax: 978-250-3373
! 
! Device:      HMC424LP3
! Description: 0.5 dB GaAs MMIC 6-Bit Digital Attenuator
! Frequency:    DC -  13.00 GHz
! Package:     LP3  - 3x3 mm Quad Flatpack No-Lead (QFN) Plastic Package: 16 pin
! Ports:       2 RF, 7 DC
!              Pad  1  = Ground
!              Pad  2  = RF IN   = Port 1
!              Pad  3  = Ground
!              Pad  4  = V6
!              Pad  5  = V5
!              Pad  6  = V4
!              Pad  7  = V3
!              Pad  8  = V2
!              Pad  9  = V1
!              Pad 10  = Ground
!              Pad 11  = RF OUT  = Port 2
!              Pad 12  = Ground
!              Pad 15  = VEE
!
! Control:     -5 Volt control voltage
! State:        37 
! Attenuation:  18.5 dB
! Voltages:    Vdd = -5.00 Volts  Idd =  -2.402 mA
!              V1  = -5.00 Volts  I1  =  -1.0 uA
!              V2  = 0.00 Volts  I2  =  29.0 uA
!              V3  = -5.00 Volts  I3  =  -1.0 uA
!              V4  = 0.00 Volts  I4  =  30.0 uA
!              V5  = 0.00 Volts  I5  =  29.0 uA
!              V6  = -5.00 Volts  I6  =  -1.0 uA
!
! Data:    The device was measured on evaluation board 105354-1. 
!          Data was collected using a calibrated network analyzer.
!          The evaluation circuit board was modeled and simulated.  This was use
!          to removed the evaluation board circuit from the measured data.
!          The reference plane is the edge of the package pin.
!
! Misc:    Lot xxxx, Unit 1
!          Application 20120001, Data collected in Application 20090083
!
! Date Measured:  2009-09-15
! Date:           2012-05-14  MJV
! Note: 
!   Hittite supplies this data as a sample of measured data at the package pin
!   for this product.  Your particular data for this product may vary.
!   Data was taken at 25 degrees C.
!   Hittite reserves the right to change this data at anytime.
!
# GHz S MA R 50

0.01	0.013210967	33.702215	0.090837111	-0.51982471	0.089487693	-1.4630247	0.04369537	9.0801129	
0.11	0.0071355346	-16.579481	0.089860046	-2.2774433	0.089787657	-2.1126433	0.040624176	0.61614374	
0.21	0.0087513806	-28.98961	0.089718823	-3.7093609	0.089594958	-3.6574609	0.039915511	-7.6275699	
0.31	0.010845932	-34.941756	0.089450653	-5.300862	0.089275752	-5.266762	0.045162638	-10.106226	
0.41	0.012620426	-41.431038	0.089424936	-6.7345919	0.089476428	-6.7618919	0.045849464	-10.722031	
0.51	0.015121229	-45.416761	0.089355485	-8.3216693	0.089221849	-8.2957693	0.045073898	-13.018459	
0.61	0.017383439	-50.263204	0.089283114	-9.7677398	0.08920092	-9.7641398	0.046375421	-19.519603	
0.71	0.020682083	-51.023139	0.089187126	-11.293209	0.089043489	-11.387209	0.052825502	-21.054813	
0.81	0.023077569	-52.247143	0.089083931	-12.754762	0.088991673	-12.798662	0.052704829	-19.785704	
0.91	0.026213168	-52.118976	0.08903853	-14.309799	0.088864435	-14.301199	0.053934664	-24.705218	
1.01	0.028269902	-51.933973	0.088920118	-15.75145	0.088858716	-15.78625	0.05743786	-28.050687	
1.11	0.031071827	-52.664288	0.088881052	-17.224368	0.088717478	-17.277268	0.063956858	-27.334919	
1.21	0.033005958	-52.467303	0.088766332	-18.687329	0.088653988	-18.774029	0.062709373	-25.768952	
1.31	0.035456071	-52.682883	0.088656214	-20.188518	0.088564399	-20.253418	0.065064807	-30.436543	
1.41	0.037312448	-52.005364	0.088656933	-21.71774	0.088483584	-21.68584	0.069661911	-30.953544	
1.51	0.039054822	-52.599578	0.088616876	-23.17769	0.088494531	-23.17789	0.073718277	-29.582436	
1.61	0.041123572	-51.926704	0.088448947	-24.626174	0.088398046	-24.615174	0.071913445	-28.406214	
1.71	0.042313495	-52.335044	0.088399859	-26.126043	0.088216856	-26.101243	0.073530492	-32.823673	
1.81	0.043721775	-52.175544	0.088317096	-27.529023	0.08824595	-27.565023	0.077883405	-32.440469	
1.91	0.044324193	-52.555527	0.088319371	-29.041904	0.08815683	-29.039204	0.079208666	-31.812559	
2.01	0.045173092	-52.917999	0.088142373	-30.489139	0.088040954	-30.535339	0.076975195	-31.976479	
2.11	0.045406065	-53.795847	0.088094317	-31.962531	0.087982823	-31.955331	0.078747128	-36.479191	
2.21	0.046135432	-55.092783	0.08805178	-33.416975	0.087869497	-33.467775	0.083270367	-35.918793	
2.31	0.046530388	-56.22122	0.088046104	-34.895465	0.087793052	-34.884065	0.082540953	-35.785877	
2.41	0.046860571	-57.895135	0.087870522	-36.270017	0.087789628	-36.370617	0.08071081	-37.60634	
2.51	0.04712818	-59.550189	0.087781908	-37.868858	0.087751595	-37.778458	0.083444528	-41.76556	
2.61	0.047046459	-61.776574	0.087779197	-39.18394	0.087758987	-39.33504	0.087456485	-40.995063	
2.71	0.047609002	-64.000407	0.087682833	-40.750818	0.087602111	-40.772118	0.085150472	-41.651959	
2.81	0.047215775	-66.910499	0.087657295	-42.167223	0.08760685	-42.164623	0.084549277	-44.51135	
2.91	0.048231295	-69.456343	0.087625677	-43.649674	0.087565168	-43.645674	0.087747371	-47.885199	
3.01	0.048589561	-72.69782	0.087530413	-45.095515	0.087339154	-45.117815	0.091076344	-47.134788	
3.11	0.049479312	-75.728156	0.087443286	-46.538996	0.087322562	-46.516996	0.087633763	-48.328944	
3.21	0.04982193	-78.855798	0.087262482	-48.01694	0.087252437	-48.02164	0.088247402	-52.044324	
3.31	0.051087851	-82.365105	0.087365991	-49.44241	0.087205205	-49.45761	0.091507762	-54.471608	
3.41	0.052626741	-85.736006	0.087245425	-50.945034	0.087114944	-50.984334	0.093617777	-54.16045	
3.51	0.054221244	-88.862572	0.087062798	-52.358126	0.086942599	-52.418726	0.090108015	-56.466259	
3.61	0.056102261	-92.401572	0.087064615	-53.887596	0.086904384	-53.862696	0.092497992	-60.932747	
3.71	0.058662633	-95.030196	0.086878196	-55.286217	0.086818203	-55.345617	0.096515611	-62.642741	
3.81	0.061154404	-97.480978	0.086832698	-56.768693	0.086772737	-56.777193	0.097382424	-62.778287	
3.91	0.063882893	-99.809059	0.086764945	-58.160687	0.086675089	-58.153487	0.095005712	-66.421333	
4.01	0.071096519	-97.61689	0.086697148	-59.618807	0.086607362	-59.624807	0.1074931	-68.292986	
4.11	0.073401479	-98.918548	0.086637652	-61.087725	0.086498121	-61.065425	0.11170036	-68.516147	
4.21	0.076284948	-100.02525	0.086472159	-62.516466	0.086492072	-62.562766	0.11266062	-68.948325	
4.31	0.079205925	-100.47416	0.086460543	-63.972672	0.086301424	-63.989472	0.11262782	-71.70208	
4.41	0.081257818	-100.78975	0.086303766	-65.422425	0.086224314	-65.390525	0.11968667	-73.354135	
4.51	0.083381765	-101.10586	0.086177599	-66.89875	0.086028904	-66.90065	0.12279533	-72.420031	
4.61	0.08554526	-101.34341	0.086089498	-68.312282	0.085970643	-68.289282	0.12330782	-72.596186	
4.71	0.087858105	-101.06797	0.086084152	-69.688689	0.085896053	-69.760189	0.12366148	-74.350612	
4.81	0.089424179	-100.95844	0.085991819	-71.205584	0.0858138	-71.152984	0.13085598	-75.160425	
4.91	0.091462145	-100.50678	0.085764687	-72.619642	0.085587138	-72.651042	0.13236759	-73.433302	
5.01	0.09274882	-100.05622	0.085606284	-73.993326	0.08555702	-74.066226	0.13158921	-73.872828	
5.11	0.094403384	-98.987628	0.085682351	-75.447547	0.08549513	-75.435347	0.13248497	-75.013356	
5.21	0.095073475	-98.375528	0.085489787	-76.87479	0.085489787	-76.93759	0.13843602	-75.428263	
5.31	0.096351507	-97.296366	0.085405089	-78.328621	0.085287179	-78.368921	0.13920181	-73.260344	
5.41	0.09667051	-96.002201	0.085331469	-79.750748	0.085184234	-79.781648	0.1376697	-74.065481	
5.51	0.097383156	-94.704207	0.085206934	-81.134927	0.085108893	-81.201827	0.14022759	-74.674328	
5.61	0.097391784	-92.922416	0.085080402	-82.615008	0.085011862	-82.595808	0.14494412	-74.508756	
5.71	0.096790021	-91.511932	0.08497017	-84.01609	0.08486263	-84.03389	0.14497586	-72.156877	
5.81	0.096515856	-89.350537	0.084945942	-85.391599	0.084838432	-85.433899	0.14245622	-72.771001	
5.91	0.095357108	-87.717929	0.084912883	-86.863348	0.084824945	-86.845348	0.14641329	-72.903038	
6.01	0.094552219	-85.459307	0.084852857	-88.259751	0.084686946	-88.348051	0.14995741	-71.577328	
6.11	0.093414083	-83.222471	0.08469586	-89.7441	0.084578929	-89.7395	0.14896392	-69.119592	
6.21	0.091640251	-80.189965	0.084683622	-91.169816	0.084527773	-91.136616	0.14549371	-69.375866	
6.31	0.089935377	-77.840499	0.084573354	-92.592209	0.084466316	-92.623309	0.14885077	-68.847691	
6.41	0.088036123	-74.334707	0.084543827	-94.042949	0.084436826	-94.034149	0.14976567	-66.842183	
6.51	0.085376718	-70.984836	0.084530637	-95.533155	0.084297393	-95.512755	0.14740911	-64.273207	
6.61	0.082621216	-67.212766	0.084512471	-96.96389	0.084395794	-96.96489	0.14244298	-64.005612	
6.71	0.079851669	-63.722995	0.084510381	-98.426058	0.0842966	-98.417258	0.14415875	-63.306388	
6.81	0.077360633	-59.503634	0.084396168	-99.963592	0.084279651	-99.934692	0.14224157	-60.902726	
6.91	0.074363004	-54.988307	0.084316878	-101.46625	0.084161703	-101.47775	0.13828965	-58.939965	
7.01	0.071317022	-50.472656	0.08436196	-102.9724	0.084274593	-103.0361	0.13202055	-58.397882	
7.11	0.06866622	-45.467305	0.084299675	-104.49738	0.0841736	-104.47618	0.13260153	-58.273016	
7.21	0.065608319	-39.945014	0.084210902	-105.98261	0.084104323	-105.97951	0.12896415	-55.299728	
7.31	0.063092135	-33.632318	0.084233889	-107.51416	0.084069188	-107.54796	0.12244621	-54.348136	
7.41	0.060625182	-27.444705	0.084289097	-109.05848	0.084182419	-109.07568	0.11667151	-54.351946	
7.51	0.058778329	-20.312859	0.08430703	-110.61029	0.084171253	-110.65239	0.11569	-54.45775	
7.61	0.056833517	-13.553522	0.084281366	-112.20921	0.084126257	-112.17821	0.11157329	-51.554439	
7.71	0.055688027	-5.8908184	0.084327867	-113.8214	0.084153294	-113.8297	0.10352705	-50.966739	
7.81	0.054275942	1.6502012	0.084236003	-115.44975	0.084139079	-115.46765	0.097573437	-51.334257	
7.91	0.054194622	9.4701402	0.084284142	-117.06703	0.084109659	-117.04153	0.094596164	-51.714012	
8.01	0.054381341	17.561961	0.084200862	-118.70417	0.083987864	-118.72497	0.088385845	-48.822965	
8.11	0.054591079	25.747807	0.084212678	-120.34125	0.084057695	-120.34495	0.078763454	-49.457984	
8.21	0.055212976	33.468123	0.084202574	-122.01823	0.083970235	-122.02293	0.072182803	-51.056311	
8.31	0.056831207	41.312453	0.084124864	-123.63466	0.08399905	-123.61416	0.067422391	-51.953335	
8.41	0.058625014	48.755174	0.084008457	-125.29913	0.083844197	-125.31183	0.05948214	-49.685287	
8.51	0.060811554	56.199407	0.084092613	-126.98839	0.083947516	-127.01089	0.048308601	-53.690143	
8.61	0.063114194	62.915156	0.08405015	-128.67078	0.083934111	-128.67758	0.041999598	-61.393664	
8.71	0.06616794	69.722872	0.084062791	-130.37313	0.083898424	-130.34033	0.036676379	-67.513327	
8.81	0.068925481	76.209603	0.083921799	-132.06746	0.083854193	-132.07506	0.027993617	-74.336816	
8.91	0.071632948	82.546661	0.084021912	-133.76854	0.083896252	-133.78094	0.023603744	-103.31365	
9.01	0.074246355	87.868753	0.08392402	-135.52506	0.083817804	-135.50606	0.027034531	-122.42034	
9.11	0.078669235	93.097558	0.083890895	-137.18126	0.083765431	-137.25966	0.031977679	-137.4327	
9.21	0.081622918	98.880443	0.083771563	-138.88543	0.08366554	-138.93653	0.035961489	-149.06792	
9.31	0.08579679	103.36381	0.08374822	-140.73843	0.083594092	-140.71903	0.047861323	-160.65244	
9.41	0.09002753	108.84609	0.083606326	-142.44415	0.083452459	-142.47015	0.057670626	-159.56506	
9.51	0.094017323	113.09604	0.083224928	-144.13069	0.083110028	-144.14799	0.063216427	-163.71286	
9.61	0.097916055	117.49283	0.083039172	-145.73642	0.082867266	-145.69752	0.073926563	-166.56031	
9.71	0.10087418	121.79272	0.082993971	-147.39415	0.08280309	-147.34985	0.085059486	-167.46775	
9.81	0.10396389	125.78391	0.082803617	-149.01311	0.082584645	-149.04261	0.094000998	-166.46135	
9.91	0.1071486	129.48289	0.082491729	-150.54493	0.082330434	-150.51883	0.10041177	-167.73998	
10.01	0.11011003	133.00833	0.082439177	-152.12605	0.082353801	-152.12585	0.11130622	-168.77723	
10.11	0.11375594	136.6813	0.08222086	-153.79797	0.082107346	-153.82867	0.12223494	-168.55813	
10.21	0.1163341	140.07631	0.081994601	-155.31558	0.081871974	-155.26408	0.13040005	-166.8974	
10.31	0.11928969	143.8397	0.081816649	-156.74223	0.081619078	-156.74623	0.13569409	-167.42317	
10.41	0.12165367	146.53367	0.081624761	-158.2797	0.081437029	-158.2913	0.14651212	-167.5426	
10.51	0.12524903	149.72485	0.081488986	-159.70633	0.081301567	-159.72113	0.15672372	-166.60591	
10.61	0.12758669	152.95457	0.081471537	-161.16712	0.081340326	-161.17092	0.16379884	-165.32343	
10.71	0.12989947	155.83202	0.081399622	-162.748	0.081156327	-162.7245	0.16923615	-165.61105	
10.81	0.13245111	158.57403	0.081225048	-164.23972	0.081159615	-164.26222	0.17962163	-165.30641	
10.91	0.13427894	161.28653	0.081147673	-165.73416	0.081026311	-165.79726	0.18692152	-163.99196	
11.01	0.13671687	163.72958	0.081002111	-167.24073	0.080918223	-167.22143	0.19160941	-162.98991	
11.11	0.13828677	166.47688	0.080908106	-168.77651	0.080768503	-168.79911	0.19567682	-162.91102	
11.21	0.13972774	168.60521	0.080781064	-170.24194	0.080595273	-170.24274	0.20345058	-162.65484	
11.31	0.1412543	170.66636	0.08070801	-171.70834	0.080587307	-171.70064	0.20831064	-161.49914	
11.41	0.14327197	172.62788	0.080642594	-173.21546	0.080447859	-173.17986	0.21092474	-160.65977	
11.51	0.14448008	174.67197	0.080469702	-174.66627	0.080377111	-174.61327	0.21223991	-160.89809	
11.61	0.14584858	176.28829	0.080319284	-176.20686	0.080273062	-176.12136	0.21907957	-161.08014	
11.71	0.14712154	178.04358	0.080254441	-177.65013	0.080106743	-177.65073	0.22152809	-160.20779	
11.81	0.1485178	179.52442	0.080097167	-179.12406	0.079986585	-179.08916	0.2231227	-160.3623	
11.91	0.14992689	-179.06818	0.079990387	179.34798	0.079861561	179.37028	0.22522337	-160.61045	
12.01	0.15157088	-177.78023	0.079905417	177.77626	0.079776729	177.80546	0.23047112	-160.91746	
12.11	0.15308974	-176.6046	0.079775462	176.25433	0.079757095	176.25383	0.23223677	-160.33562	
12.21	0.15511452	-175.55542	0.07973235	174.79423	0.079475737	174.76143	0.23329389	-160.96764	
12.31	0.15734723	-174.70845	0.079480721	173.13184	0.079352717	173.17964	0.23665327	-161.43008	
12.41	0.15971529	-174.20612	0.079068686	171.45073	0.079023183	171.41613	0.24221407	-161.89588	
12.51	0.16121762	-173.90394	0.07859122	169.95657	0.078509829	169.87297	0.24414184	-161.32116	
12.61	0.16231391	-173.30621	0.078163972	168.76792	0.078047073	168.73012	0.24509236	-162.34149	
12.71	0.16446945	-171.95045	0.078141542	167.41355	0.078060617	167.40145	0.25069498	-162.79792	
12.81	0.1670261	-171.02193	0.078146775	166.02094	0.078029902	166.01214	0.25548651	-163.07822	
12.91	0.17071683	-170.02337	0.078244206	164.50286	0.078073237	164.51716	0.25883186	-162.75743	
13.01	0.17403789	-169.33922	0.078141528	162.9883	0.078024662	162.9943	0.26099667	-163.57599	
13.11	0.17881998	-168.67208	0.078002301	161.39144	0.077867712	161.42174	0.26711873	-163.99274	
13.21	0.18326028	-167.91959	0.077837993	159.8944	0.07773948	159.852	0.27172756	-164.14935	
13.31	0.1875067	-167.29772	0.077631867	158.24344	0.077497917	158.27904	0.27609033	-164.0921	
13.41	0.19254593	-166.71436	0.077440641	156.85895	0.077235852	156.83175	0.27962067	-164.67463	
13.51	0.198202	-165.89241	0.077175984	155.36136	0.077069435	155.39636	0.28735016	-164.96632	
13.61	0.2041312	-165.30338	0.07697003	153.88546	0.076819532	153.85746	0.29316743	-164.82149	
13.71	0.2111357	-164.55843	0.076757671	152.39456	0.0766517	152.35336	0.29808674	-164.63029	
13.81	0.21785391	-163.57688	0.076633102	150.86376	0.076430448	150.83376	0.30336675	-165.01474	
13.91	0.22469561	-162.8434	0.076328805	149.35869	0.076162022	149.35099	0.31266687	-164.76148	
14.01	0.23277216	-162.09274	0.076120046	147.86841	0.075918749	147.84251	0.3179596	-164.24067	
14.11	0.24028736	-161.01607	0.07577643	146.34554	0.075706669	146.35014	0.32482521	-163.9071	
14.21	0.24750188	-160.07802	0.075544338	144.85728	0.075353238	144.86688	0.33057582	-163.70805	
14.31	0.25614767	-159.15004	0.075118665	143.44952	0.075023594	143.52782	0.34007087	-163.05658	
14.41	0.26439036	-158.04812	0.074911236	142.03409	0.074790591	142.01219	0.34442355	-162.1869	
14.51	0.27307158	-156.93853	0.07456538	140.58643	0.074505311	140.61413	0.35116527	-161.71013	
14.61	0.28153306	-155.80141	0.074373513	139.20968	0.074202459	139.19728	0.35666319	-160.95962	
14.71	0.28997293	-154.53712	0.073963431	137.78944	0.073878327	137.79824	0.36532984	-160.13835	
14.81	0.29834135	-153.49356	0.073731563	136.39118	0.073502725	136.37488	0.36945961	-158.80832	
14.91	0.30717147	-152.08426	0.073315133	135.0277	0.073256072	135.0369	0.3744395	-158.15784	
15.01	0.31441076	-150.85538	0.07292994	133.69224	0.072913149	133.68444	0.37974495	-157.09864	
15.11	0.32163305	-149.6397	0.072608569	132.39997	0.072474942	132.41627	0.38602272	-156.13367	
15.21	0.32883121	-148.37909	0.072272461	131.17707	0.072147758	131.18667	0.38959158	-154.56349	
15.31	0.33603556	-147.06009	0.072137622	130.03398	0.07195514	130.01608	0.39297741	-153.78679	
15.41	0.34232101	-145.84933	0.071968662	128.73581	0.07189413	128.74311	0.3977264	-152.42407	
15.51	0.34832936	-144.57986	0.07174195	127.48266	0.071684156	127.48676	0.40127802	-151.19683	
15.61	0.35202041	-143.19913	0.071604179	126.09101	0.071439494	126.14981	0.40294377	-149.57701	
15.71	0.35488969	-141.82346	0.071281123	124.93135	0.071149939	124.88505	0.40343358	-148.72737	
15.81	0.35936207	-140.24504	0.071034656	123.80908	0.070903926	123.81058	0.40733035	-147.35179	
15.91	0.36378983	-138.86101	0.071094147	122.64333	0.070955137	122.66523	0.40742574	-145.88099	
16.01	0.36547023	-137.47876	0.071053511	121.37063	0.070898255	121.33153	0.40662058	-144.43036	
16.11	0.36526825	-136.00413	0.070843678	119.99073	0.0707133	120.05063	0.40480226	-143.42244	
16.21	0.36596024	-134.13039	0.070473043	118.9734	0.070270497	118.9792	0.4062447	-142.05717	
16.31	0.36908335	-132.26255	0.070369641	118.09485	0.070223963	118.02535	0.40275881	-140.50479	
16.41	0.3713743	-130.63483	0.07069554	116.96134	0.070443677	116.99474	0.39887167	-139.33951	
16.51	0.37213786	-129.32878	0.070887671	115.86888	0.070920323	115.86368	0.39320728	-138.32158	
16.61	0.37162159	-128.30942	0.071334829	114.73404	0.071178957	114.72754	0.38986369	-137.36836	
16.71	0.36987958	-127.25144	0.071602243	113.44531	0.071577516	113.47481	0.38406825	-136.0472	
16.81	0.36522578	-126.27147	0.072221436	112.21593	0.072088521	112.21513	0.37658333	-135.06073	
16.91	0.36087092	-125.28523	0.072869029	110.66183	0.072760049	110.60103	0.36811081	-134.29626	
17.01	0.35362317	-124.47469	0.073343513	108.98303	0.073216962	109.01103	0.36079231	-133.56125	
17.11	0.34573629	-123.92223	0.073749683	107.38553	0.073673306	107.37573	0.35055356	-132.67553	
17.21	0.33443614	-123.66136	0.074277401	105.71696	0.074166316	105.75966	0.33910838	-132.09142	
17.31	0.32124858	-123.42248	0.074867895	103.88868	0.074807576	103.95147	0.32644593	-131.88421	
17.41	0.30298754	-123.21458	0.075430216	102.0477	0.075291395	102.1213	0.31456847	-131.70221	
17.51	0.28279802	-122.61558	0.075918847	100.11387	0.075770411	100.06808	0.29812858	-131.77097	
17.61	0.26232071	-121.09339	0.076452013	98.122521	0.076355254	98.090221	0.28301516	-132.45233	
17.71	0.24597325	-119.51103	0.077275014	95.977782	0.077194986	96.029782	0.26648034	-133.32869	
17.81	0.22634233	-119.70557	0.078191914	93.27024	0.078074973	93.33324	0.25135342	-134.43773	
17.91	0.20401735	-118.56426	0.07799896	90.361269	0.077882308	90.363769	0.23012499	-135.67878	
18.01	0.1864933	-115.42792	0.077308228	87.965771	0.077272634	88.065571	0.21161901	-139.2921	
18.11	0.17727294	-115.05348	0.07725359	86.189293	0.077155814	86.205394	0.19400987	-142.25676	
18.21	0.1661419	-118.19347	0.077749255	83.941138	0.077659793	84.032439	0.17457299	-148.08151	
18.31	0.14908522	-123.2794	0.078132748	81.544876	0.078078795	81.556876	0.15669996	-153.8772	
18.41	0.12768927	-130.92916	0.078528822	78.933837	0.078384299	78.928237	0.14185638	-165.26027	
18.51	0.10695755	-140.30919	0.079071129	76.591921	0.078834795	76.627521	0.13855407	-174.28993	
18.61	0.093119846	-153.57355	0.079734869	73.940907	0.079633955	74.029007	0.13354598	173.87311	
18.71	0.088851499	-169.97624	0.080474713	70.907849	0.080382116	70.943549	0.13610902	162.5175	
18.81	0.092459693	167.34602	0.080633952	67.333731	0.080541174	67.339932	0.14601842	148.70583	
18.91	0.11060004	148.15332	0.080597044	63.880611	0.080374657	63.868811	0.16679332	140.60317	
19.01	0.13126829	134.3112	0.079752309	60.590934	0.079513937	60.633533	0.18391287	132.94438	
19.11	0.15144652	123.7762	0.078849846	57.653307	0.078795393	57.729703	0.20793128	127.63742	
19.21	0.17492391	119.38406	0.078534372	54.816902	0.07832669	54.848402	0.23049908	122.91393	
19.31	0.20150879	117.66395	0.078367896	51.594594	0.078124669	51.557094	0.25919786	119.56767	
19.41	0.23240215	116.17033	0.077592786	48.278257	0.07744107	48.171457	0.28360551	116.92653	
19.51	0.26497323	114.16881	0.076595076	44.852352	0.076480523	44.848952	0.31075065	114.89769	
19.61	0.29747354	112.45202	0.075158572	41.618984	0.075115316	41.614486	0.33613449	113.78259	
19.71	0.32702872	110.92134	0.073448682	38.54523	0.073305068	38.60763	0.35906124	113.04174	
19.81	0.35416685	109.42695	0.071408048	36.10409	0.071260222	36.072195	0.38117589	111.86074	
19.91	0.37508286	108.97716	0.069957335	33.958778	0.069860754	33.911877	0.40585125	111.38089	
20.01	0.39407344	109.40647	0.068748452	31.831917	0.068495639	31.811917	0.4281364	111.24207	
