!
! Hittite Microwave Corporation
! 2 Elizabeth Drive
! Chelmsford, MA 01824
! http://www.hittite.com
! Tel: 978-250-3343
! Fax: 978-250-3373
! 
! Device:      HMC424LP3
! Description: 0.5 dB GaAs MMIC 6-Bit Digital Attenuator
! Frequency:    DC -  13.00 GHz
! Package:     LP3  - 3x3 mm Quad Flatpack No-Lead (QFN) Plastic Package: 16 pin
! Ports:       2 RF, 7 DC
!              Pad  1  = Ground
!              Pad  2  = RF IN   = Port 1
!              Pad  3  = Ground
!              Pad  4  = V6
!              Pad  5  = V5
!              Pad  6  = V4
!              Pad  7  = V3
!              Pad  8  = V2
!              Pad  9  = V1
!              Pad 10  = Ground
!              Pad 11  = RF OUT  = Port 2
!              Pad 12  = Ground
!              Pad 15  = VEE
!
! Control:     -5 Volt control voltage
! State:        34 
! Attenuation:  17.0 dB
! Voltages:    Vdd = -5.00 Volts  Idd =  -2.273 mA
!              V1  = 0.00 Volts  I1  =  29.0 uA
!              V2  = -5.00 Volts  I2  =  -1.0 uA
!              V3  = 0.00 Volts  I3  =  29.0 uA
!              V4  = 0.00 Volts  I4  =  29.0 uA
!              V5  = 0.00 Volts  I5  =  29.0 uA
!              V6  = -5.00 Volts  I6  =  -1.0 uA
!
! Data:    The device was measured on evaluation board 105354-1. 
!          Data was collected using a calibrated network analyzer.
!          The evaluation circuit board was modeled and simulated.  This was use
!          to removed the evaluation board circuit from the measured data.
!          The reference plane is the edge of the package pin.
!
! Misc:    Lot xxxx, Unit 1
!          Application 20120001, Data collected in Application 20090083
!
! Date Measured:  2009-09-15
! Date:           2012-05-14  MJV
! Note: 
!   Hittite supplies this data as a sample of measured data at the package pin
!   for this product.  Your particular data for this product may vary.
!   Data was taken at 25 degrees C.
!   Hittite reserves the right to change this data at anytime.
!
# GHz S MA R 50

0.01	0.077129234	3.0354614	0.10712997	-1.7969095	0.10633126	-1.2905095	0.046725615	5.4279924	
0.11	0.072669248	-4.2432747	0.10630123	-2.2794473	0.1059713	-2.1676473	0.041901691	0.24750599	
0.21	0.073223097	-7.8101409	0.10604624	-3.8052237	0.10585108	-3.6512237	0.041195863	-7.3534345	
0.31	0.074986394	-10.94876	0.10595773	-5.270258	0.10566536	-5.296758	0.04644815	-9.9946525	
0.41	0.075970813	-14.231467	0.10578947	-6.8607897	0.10567991	-6.8377897	0.047074237	-10.728519	
0.51	0.077916127	-17.51137	0.10555697	-8.3954988	0.10550837	-8.4311988	0.046286116	-12.892508	
0.61	0.079510485	-20.887734	0.10546636	-9.8999087	0.10530862	-9.9355087	0.047626137	-19.373226	
0.71	0.082457808	-23.809588	0.10531124	-11.461681	0.10517795	-11.480781	0.054004064	-20.875703	
0.81	0.084701836	-26.447831	0.10526824	-12.982046	0.10518344	-12.940846	0.053945739	-19.825075	
0.91	0.087934038	-28.70995	0.105245	-14.496235	0.10500294	-14.509135	0.055150695	-24.608958	
1.01	0.090109821	-30.747957	0.10503851	-15.998702	0.10492973	-15.972902	0.058614331	-27.911081	
1.11	0.09282279	-32.963468	0.1049139	-17.51583	0.10487767	-17.48533	0.06520895	-27.33457	
1.21	0.095070208	-34.658136	0.10486918	-18.980229	0.10472439	-18.979429	0.063872494	-25.82166	
1.31	0.097581344	-36.528267	0.10473356	-20.514742	0.10455285	-20.492942	0.066284847	-30.37445	
1.41	0.099864625	-37.867157	0.1046328	-21.962071	0.10450037	-21.988071	0.07092834	-30.842009	
1.51	0.1017044	-39.59955	0.10460519	-23.470682	0.10437662	-23.483882	0.074944459	-29.58324	
1.61	0.10396152	-40.90177	0.10440342	-24.924873	0.10425928	-24.956773	0.072975796	-28.494678	
1.71	0.10526847	-42.344498	0.1044263	-26.453372	0.10415015	-26.400772	0.07475206	-32.870953	
1.81	0.10686465	-43.635021	0.104182	-27.914914	0.10415801	-27.943714	0.079198926	-32.447181	
1.91	0.1075398	-45.002614	0.10414709	-29.361995	0.10397936	-29.425195	0.080311882	-31.865454	
2.01	0.10841601	-46.438555	0.10403307	-30.833659	0.10387748	-30.897959	0.078055644	-32.042173	
2.11	0.10879752	-47.971828	0.10390373	-32.309492	0.10377223	-32.359792	0.079911616	-36.492422	
2.21	0.10955322	-49.745059	0.10382956	-33.79439	0.10361462	-33.80989	0.084531103	-36.053955	
2.31	0.10990911	-51.424689	0.1037758	-35.335926	0.10365639	-35.318126	0.083740086	-35.893943	
2.41	0.11026409	-53.351085	0.10360562	-36.768392	0.10345067	-36.693492	0.081917878	-37.732054	
2.51	0.1104618	-55.24611	0.10353835	-38.249871	0.1033716	-38.236371	0.084636381	-41.844972	
2.61	0.11037897	-57.339115	0.1035008	-39.688481	0.10328653	-39.731581	0.088577522	-41.075128	
2.71	0.1109126	-59.466846	0.10340048	-41.188684	0.10331718	-41.163884	0.086305717	-41.765673	
2.81	0.11027514	-61.742804	0.10321724	-42.585871	0.10315784	-42.676671	0.085680849	-44.652536	
2.91	0.111277	-64.137502	0.1032169	-44.077963	0.10308626	-44.116563	0.08892209	-47.960043	
3.01	0.11144786	-66.590315	0.10309348	-45.591613	0.10301043	-45.642813	0.092307943	-47.261729	
3.11	0.11222219	-69.184195	0.10301533	-47.075926	0.10282574	-47.065626	0.088744736	-48.418961	
3.21	0.11244458	-71.718199	0.1028497	-48.589005	0.10279052	-48.571505	0.089302948	-52.128677	
3.31	0.11340414	-74.428377	0.10276951	-50.040422	0.10262763	-50.011122	0.092602669	-54.594495	
3.41	0.11439301	-77.191532	0.10257919	-51.505448	0.10244936	-51.507548	0.094765906	-54.229588	
3.51	0.11587575	-79.881985	0.10253918	-52.946122	0.10233869	-53.019622	0.091307238	-56.588387	
3.61	0.11743679	-82.688299	0.10231424	-54.488228	0.10224359	-54.453728	0.093628084	-60.990073	
3.71	0.11982103	-85.195916	0.10232705	-55.912094	0.10216225	-55.877394	0.097593941	-62.759966	
3.81	0.12210064	-87.635589	0.10213972	-57.382713	0.10191654	-57.388813	0.098496565	-62.864858	
3.91	0.12459554	-90.039749	0.10196141	-58.862664	0.10183236	-58.790964	0.096080208	-66.444641	
4.01	0.13244281	-90.297437	0.10197006	-60.271833	0.10178239	-60.252633	0.10854653	-68.342137	
4.11	0.13477093	-91.996237	0.10190601	-61.72536	0.10161312	-61.74626	0.11274273	-68.627363	
4.21	0.13751083	-93.690199	0.10169409	-63.159786	0.10155369	-63.217386	0.11375163	-69.02379	
4.31	0.14061236	-94.957347	0.10154593	-64.588555	0.10130072	-64.639355	0.1137404	-71.744598	
4.41	0.14277695	-96.081674	0.10138004	-66.099857	0.10129837	-66.125157	0.12081061	-73.45974	
4.51	0.14508279	-97.160996	0.10125034	-67.537726	0.10108727	-67.543526	0.12381925	-72.517766	
4.61	0.147299	-98.185247	0.10113131	-68.986287	0.10094519	-68.973987	0.12433634	-72.691165	
4.71	0.14974009	-98.859176	0.1009589	-70.418109	0.10087757	-70.428309	0.12473611	-74.461498	
4.81	0.15126888	-99.643181	0.10084949	-71.841385	0.10066389	-71.805885	0.13184415	-75.221326	
4.91	0.15321365	-100.16859	0.10060651	-73.293876	0.10038668	-73.296676	0.13340017	-73.523539	
5.01	0.15440937	-100.66824	0.10049274	-74.692737	0.10031935	-74.666037	0.13251669	-73.977769	
5.11	0.15580221	-100.79284	0.10040148	-76.06796	0.10027441	-76.12376	0.1334761	-75.091029	
5.21	0.15632652	-101.1584	0.10029881	-77.510055	0.10013727	-77.508955	0.13930732	-75.542221	
5.31	0.15723234	-101.22444	0.10004745	-78.973615	0.099966851	-78.967115	0.14015791	-73.370925	
5.41	0.15699362	-101.14357	0.099996837	-80.374113	0.099916282	-80.372513	0.13858772	-74.171482	
5.51	0.15711362	-101.08614	0.100017	-81.740805	0.099786969	-81.751705	0.14112178	-74.795004	
5.61	0.15637364	-100.70547	0.099772464	-83.177787	0.099692089	-83.177487	0.14584502	-74.642333	
5.71	0.15498642	-100.57997	0.099722787	-84.627825	0.099459073	-84.581425	0.14582637	-72.29865	
5.81	0.15343503	-100.00808	0.099720256	-85.995147	0.099513817	-85.986947	0.14340422	-72.897662	
5.91	0.15120526	-99.801326	0.099607822	-87.403158	0.099424506	-87.431458	0.14730478	-73.043108	
6.01	0.14878122	-99.220022	0.099502658	-88.850009	0.099365285	-88.845209	0.15079453	-71.751681	
6.11	0.14586895	-98.678703	0.099400565	-90.257957	0.099240479	-90.259257	0.14975817	-69.306306	
6.21	0.14192819	-97.76496	0.09947173	-91.660391	0.099254377	-91.661491	0.14622561	-69.550491	
6.31	0.13815539	-97.335552	0.09935121	-93.113884	0.099191204	-93.096384	0.14963847	-69.034294	
6.41	0.13332425	-96.222537	0.099350741	-94.546459	0.09909942	-94.528859	0.15052821	-67.049238	
6.51	0.12780905	-95.395306	0.099255962	-96.052749	0.099050484	-95.983949	0.14825672	-64.477113	
6.61	0.12152811	-94.454249	0.099342693	-97.503934	0.09914845	-97.498134	0.14314932	-64.201936	
6.71	0.1153644	-93.759646	0.099357834	-98.995347	0.099174978	-98.985247	0.14498767	-63.594149	
6.81	0.1090017	-92.739634	0.099275782	-100.49774	0.099115897	-100.49984	0.14300722	-61.176175	
6.91	0.10138158	-91.848383	0.099270902	-101.97505	0.099145263	-102.03825	0.13896657	-59.239226	
7.01	0.093946867	-91.158403	0.09929717	-103.56988	0.099194335	-103.55748	0.13263354	-58.730431	
7.11	0.086031446	-90.461912	0.099313407	-105.09679	0.099130633	-105.09129	0.13328395	-58.624036	
7.21	0.077441768	-89.777323	0.099224025	-106.62098	0.099030013	-106.60808	0.12950032	-55.631799	
7.31	0.068396198	-89.024769	0.099269683	-108.16569	0.099189714	-108.19199	0.12303947	-54.784844	
7.41	0.059559441	-88.700713	0.099449414	-109.74691	0.099312114	-109.78861	0.11733212	-54.809672	
7.51	0.049983709	-88.430557	0.099416442	-111.35917	0.09925633	-111.33197	0.11627089	-54.975997	
7.61	0.040686992	-89.348478	0.099370143	-112.97226	0.099221528	-112.92046	0.11192463	-52.101047	
7.71	0.031030671	-90.775208	0.099461742	-114.6303	0.099255838	-114.5829	0.10397775	-51.567592	
7.81	0.021850608	-96.469887	0.099444302	-116.25935	0.099284146	-116.27465	0.09802716	-52.042533	
7.91	0.012830427	-109.02327	0.099415507	-117.90816	0.099301117	-117.91856	0.094883669	-52.453561	
8.01	0.006914586	-159.75374	0.099361295	-119.60395	0.099189852	-119.62535	0.088630428	-49.685288	
8.11	0.01211746	144.44483	0.099322869	-121.27584	0.099151492	-121.29104	0.078984231	-50.441401	
8.21	0.021042517	129.68444	0.099291113	-122.99353	0.099096971	-122.99523	0.072405182	-51.9766	
8.31	0.030845418	124.12087	0.099192022	-124.63788	0.099043674	-124.64268	0.067674651	-53.064098	
8.41	0.040776728	122.23975	0.099095187	-126.35042	0.098912815	-126.33132	0.059615802	-50.974376	
8.51	0.050939001	121.93008	0.099139449	-128.13696	0.098911434	-128.08556	0.048376087	-55.391551	
8.61	0.060328827	122.13909	0.099022433	-129.80695	0.098851575	-129.81815	0.042220513	-63.246146	
8.71	0.070595039	122.58898	0.098941202	-131.491	0.098702279	-131.522	0.036931422	-69.631456	
8.81	0.080259154	123.74558	0.098787421	-133.22976	0.098605616	-133.27626	0.028294593	-77.11342	
8.91	0.089516994	125.19116	0.098717142	-134.98689	0.098660332	-135.02759	0.024432479	-106.26874	
9.01	0.097815418	126.32859	0.098576704	-136.74385	0.098429277	-136.72515	0.028255638	-124.02976	
9.11	0.10714171	127.10277	0.098416771	-138.45078	0.098280897	-138.46188	0.033332638	-138.19695	
9.21	0.11563444	128.95637	0.098261732	-140.19958	0.098126072	-140.15238	0.037255176	-149.4697	
9.31	0.12370611	129.84979	0.098168822	-141.98531	0.09794304	-141.98181	0.049223703	-160.87574	
9.41	0.13237792	131.56535	0.097907788	-143.71479	0.097772616	-143.72159	0.058942401	-159.85504	
9.51	0.13963316	132.86206	0.097430526	-145.38573	0.097273613	-145.35083	0.064612094	-163.67847	
9.61	0.14670565	134.34735	0.097179444	-146.95487	0.096978265	-146.93337	0.075215637	-166.64451	
9.71	0.15265079	136.04245	0.097017738	-148.62255	0.09686149	-148.60505	0.086432914	-167.58412	
9.81	0.15796311	137.56429	0.096760465	-150.24417	0.096615754	-150.25017	0.095338327	-166.58573	
9.91	0.16303761	138.97954	0.096316061	-151.737	0.096160942	-151.7583	0.10175257	-167.83245	
10.01	0.16746747	140.355	0.096244787	-153.30309	0.096023431	-153.36029	0.11237129	-168.94811	
10.11	0.17208262	141.97835	0.09598053	-154.94771	0.09580389	-154.94441	0.12338244	-168.7635	
10.21	0.17554206	143.43861	0.095702075	-156.44483	0.095470974	-156.49513	0.13164373	-167.13788	
10.31	0.17885885	145.13078	0.095335325	-157.94348	0.095203705	-157.94648	0.13677182	-167.59686	
10.41	0.18131427	146.27015	0.095069774	-159.40088	0.094982252	-159.36648	0.14763839	-167.67724	
10.51	0.18454628	147.79166	0.094953277	-160.84906	0.09478944	-160.84706	0.15778438	-166.83563	
10.61	0.18627387	149.37132	0.094926204	-162.30622	0.094751505	-162.29102	0.16458675	-165.47727	
10.71	0.18763026	150.78846	0.094707419	-163.78072	0.094565778	-163.78492	0.17015884	-165.8023	
10.81	0.18900942	152.14267	0.094535438	-165.31705	0.094502792	-165.30725	0.18053186	-165.4829	
10.91	0.18943915	153.51494	0.094558684	-166.81452	0.094384661	-166.76392	0.18799303	-164.15982	
11.01	0.19027901	154.77285	0.094351545	-168.22568	0.094242981	-168.18868	0.19251778	-163.16187	
11.11	0.1898113	156.22566	0.09414239	-169.71537	0.093969133	-169.71557	0.19650791	-163.101	
11.21	0.18941379	157.29753	0.094052584	-171.14859	0.093847073	-171.14139	0.20415546	-162.83879	
11.31	0.18874016	158.34233	0.093900177	-172.61606	0.093802932	-172.66016	0.20909408	-161.71169	
11.41	0.18851242	159.41942	0.09378604	-174.02363	0.093602662	-174.03603	0.21155671	-160.85765	
11.51	0.18720258	160.51734	0.093617937	-175.44674	0.093499453	-175.43794	0.21289937	-161.06447	
11.61	0.18620021	161.36275	0.093523414	-176.96305	0.093458833	-176.96815	0.21984111	-161.24176	
11.71	0.18483244	162.30387	0.093488228	-178.46097	0.093326919	-178.45167	0.22204893	-160.38472	
11.81	0.18374751	163.186	0.093271149	-179.84808	0.093163828	-179.89148	0.22372946	-160.54241	
11.91	0.18239452	163.91975	0.093201107	178.60259	0.092965341	178.62929	0.22563729	-160.78358	
12.01	0.18126588	164.70351	0.093047232	177.07245	0.092908074	177.03995	0.23102225	-161.10729	
12.11	0.1802422	165.40066	0.092899858	175.58608	0.092857086	175.58208	0.23267425	-160.51342	
12.21	0.17950425	166.08214	0.09279818	174.1439	0.092659394	174.1059	0.23361921	-161.1315	
12.31	0.17894931	166.70346	0.092666346	172.52998	0.092506455	172.52898	0.23710566	-161.56891	
12.41	0.17892733	167.04587	0.092291826	170.83179	0.092143189	170.87939	0.2426929	-162.08363	
12.51	0.17833425	167.22712	0.091886106	169.33513	0.091695885	169.34523	0.24455819	-161.46063	
12.61	0.17692778	167.62369	0.091383559	168.11458	0.09121538	168.11308	0.24561151	-162.48446	
12.71	0.17591345	168.79341	0.091337756	166.78306	0.091117194	166.82446	0.251068	-162.94267	
12.81	0.17542148	169.6637	0.091320083	165.36575	0.091183508	165.36555	0.25599082	-163.22618	
12.91	0.1759882	170.76565	0.09140754	163.87313	0.091249821	163.88673	0.25915178	-162.88995	
13.01	0.17647374	171.60574	0.091316781	162.36695	0.091201209	162.43035	0.26142305	-163.71594	
13.11	0.17824117	172.66914	0.091213865	160.80963	0.091014557	160.86633	0.26749492	-164.12143	
13.21	0.17960577	173.82246	0.091053977	159.31783	0.090907334	159.31103	0.27211106	-164.275	
13.31	0.18098806	174.77046	0.090814399	157.7315	0.090772587	157.7426	0.276504	-164.23116	
13.41	0.18333263	175.85173	0.090566486	156.25709	0.090347787	156.30129	0.27997935	-164.80146	
13.51	0.18561266	177.26964	0.090386816	154.80679	0.090189314	154.84229	0.28771663	-165.08183	
13.61	0.18867268	178.5046	0.090211999	153.35699	0.090004517	153.34509	0.29356072	-164.93152	
13.71	0.19272711	-179.99543	0.090050937	151.83248	0.089895559	151.82328	0.2984723	-164.74896	
13.81	0.19621405	-178.24938	0.089870872	150.33978	0.089633211	150.31948	0.30381454	-165.12721	
13.91	0.20025451	-176.79606	0.089572724	148.86089	0.089346138	148.79829	0.31304256	-164.88917	
14.01	0.20549982	-175.16638	0.089293733	147.31389	0.089139662	147.31839	0.31838932	-164.34313	
14.11	0.2101945	-173.25293	0.08902016	145.8348	0.088907494	145.7808	0.32501221	-163.98159	
14.21	0.2146849	-171.52778	0.088777642	144.32098	0.088553067	144.33278	0.33097814	-163.80565	
14.31	0.22088145	-169.72112	0.088396635	142.86871	0.088274595	142.91961	0.34045981	-163.16515	
14.41	0.22667517	-167.7723	0.088215964	141.42113	0.087992809	141.49923	0.34485481	-162.28436	
14.51	0.23305362	-165.76328	0.087856684	139.99011	0.087755593	140.03911	0.35158951	-161.79385	
14.61	0.23948183	-163.75267	0.087641178	138.55558	0.087489958	138.60308	0.35705068	-161.07566	
14.71	0.24586859	-161.67295	0.087271384	137.16843	0.087140864	137.17483	0.3658022	-160.21569	
14.81	0.25245998	-159.87478	0.086996929	135.67958	0.08686682	135.76608	0.36982802	-158.89298	
14.91	0.25969043	-157.6626	0.086652348	134.31242	0.086502834	134.33162	0.37479741	-158.25657	
15.01	0.26566767	-155.70428	0.086280462	132.89824	0.086111759	132.89154	0.38028356	-157.19568	
15.11	0.2716558	-153.78135	0.085862008	131.6113	0.085723726	131.6236	0.38643045	-156.24915	
15.21	0.27790635	-151.83937	0.085491845	130.36665	0.085373815	130.33945	0.38993829	-154.67322	
15.31	0.2842906	-149.83169	0.085340909	129.09351	0.085193657	129.09331	0.39323519	-153.90864	
15.41	0.29008681	-148.03714	0.085194041	127.75611	0.085047043	127.78731	0.39814675	-152.5469	
15.51	0.29572166	-146.18703	0.084955216	126.41708	0.084916102	126.50138	0.40147987	-151.33566	
15.61	0.2992753	-144.21593	0.08481712	125.04487	0.084680522	124.98797	0.40301925	-149.72747	
15.71	0.30191983	-142.30024	0.084412791	123.72709	0.084276844	123.74839	0.40358364	-148.8808	
15.81	0.3066558	-140.12798	0.084172406	122.5772	0.083969147	122.6304	0.40745337	-147.50642	
15.91	0.31125143	-138.22125	0.084105042	121.36418	0.084056642	121.35658	0.40765784	-146.05214	
16.01	0.3133585	-136.36035	0.08409842	119.99224	0.083982314	119.97444	0.40658187	-144.60634	
16.11	0.31386713	-134.37103	0.083859157	118.62558	0.083724101	118.62618	0.40474168	-143.60331	
16.21	0.31527444	-131.92854	0.083433012	117.50283	0.083289053	117.50603	0.40623938	-142.23553	
16.31	0.31940082	-129.54289	0.083356438	116.52431	0.083116864	116.47021	0.40259616	-140.68386	
16.41	0.32263135	-127.40754	0.083538495	115.3622	0.08345198	115.3383	0.39860996	-139.51638	
16.51	0.32448765	-125.70122	0.083812859	114.13601	0.083658612	114.09851	0.3927689	-138.51028	
16.61	0.32514166	-124.23961	0.084150447	112.87109	0.084043944	112.92299	0.38934652	-137.55903	
16.71	0.32470697	-122.7845	0.0844927	111.55613	0.084414916	111.59943	0.38342853	-136.24647	
16.81	0.3214569	-121.30038	0.085058471	110.27891	0.084882384	110.27821	0.3757784	-135.24084	
16.91	0.31846063	-119.86036	0.085665731	108.64234	0.085508074	108.66274	0.36726408	-134.49246	
17.01	0.31307204	-118.5409	0.086138224	106.98094	0.086029206	107.02614	0.35978857	-133.75987	
17.11	0.30656571	-117.46164	0.086547759	105.36008	0.086328824	105.35118	0.34942233	-132.85545	
17.21	0.29701368	-116.65656	0.087100776	103.64876	0.086920466	103.64636	0.33798974	-132.29394	
17.31	0.28524341	-115.75227	0.087584005	101.84178	0.087422815	101.74578	0.32510042	-132.09256	
17.41	0.26927624	-114.70186	0.088105713	99.830935	0.087973945	99.872633	0.31326868	-131.90281	
17.51	0.25135076	-112.98119	0.088445151	97.835487	0.088231578	97.825089	0.29669856	-131.94256	
17.61	0.23450554	-110.12421	0.088959233	95.934241	0.088713768	95.909441	0.2815002	-132.64031	
17.71	0.22192932	-107.27746	0.089699937	93.878354	0.089565785	93.828254	0.26497357	-133.5128	
17.81	0.20510119	-105.95896	0.090584543	91.346144	0.090407425	91.302344	0.24984254	-134.64912	
17.91	0.1870883	-102.85937	0.090159679	88.440696	0.090035205	88.505296	0.22892657	-135.90922	
18.01	0.17620955	-97.934702	0.089483148	86.225797	0.089318467	86.221697	0.21032434	-139.51818	
18.11	0.1701562	-96.604386	0.089392882	84.449997	0.089259192	84.472697	0.192288	-142.44677	
18.21	0.15912585	-98.253854	0.090086978	82.235177	0.089993678	82.254579	0.17332576	-148.33374	
18.31	0.14127332	-100.68837	0.090600904	79.788632	0.090465401	79.866928	0.15520352	-154.21345	
18.41	0.11744682	-104.05528	0.090834862	77.144331	0.090834862	77.206131	0.14062416	-165.69585	
18.51	0.093579905	-107.48858	0.091285939	74.877257	0.09124391	74.862257	0.13737645	-174.80305	
18.61	0.072466055	-114.87287	0.092171191	72.241672	0.09198038	72.295372	0.13242762	173.23846	
18.71	0.056107074	-129.80082	0.092920361	69.249031	0.092770712	69.283331	0.1351806	161.96114	
18.81	0.042053432	-165.39623	0.093141219	65.801707	0.092948404	65.791907	0.14550675	148.18303	
18.91	0.052545542	152.87952	0.093092119	62.338476	0.092792515	62.377375	0.16608915	140.05083	
19.01	0.073874065	129.70853	0.092109755	59.152929	0.092024956	59.215525	0.18368526	132.51291	
19.11	0.096514863	116.21693	0.091129322	56.264361	0.09098256	56.25406	0.20785798	127.16537	
19.21	0.12030232	113.08064	0.090705443	53.461364	0.090642807	53.490164	0.23025153	122.57305	
19.31	0.14646139	113.41319	0.09073084	50.363139	0.090668187	50.298039	0.25883566	119.27883	
19.41	0.17797293	113.32147	0.08997191	46.985247	0.089868386	47.014147	0.28361543	116.71085	
19.51	0.21070102	112.2228	0.088791384	43.608902	0.088658592	43.660402	0.31069093	114.64733	
19.61	0.24367731	111.34192	0.087397077	40.345807	0.08720611	40.348108	0.33602642	113.58385	
19.71	0.27411261	110.25922	0.085590541	37.319569	0.085383854	37.318667	0.3589599	112.83956	
19.81	0.30237383	109.11145	0.083296279	34.768118	0.083162128	34.803118	0.38101239	111.72963	
19.91	0.32441407	109.12833	0.081578698	32.49357	0.08142856	32.484373	0.40606044	111.18151	
20.01	0.34452152	110.01077	0.080333089	30.476567	0.080139101	30.539967	0.42819125	111.12883	
