!
! Hittite Microwave Corporation
! 2 Elizabeth Drive
! Chelmsford, MA 01824
! http://www.hittite.com
! Tel: 978-250-3343
! Fax: 978-250-3373
! 
! Device:      HMC424LP3
! Description: 0.5 dB GaAs MMIC 6-Bit Digital Attenuator
! Frequency:    DC -  13.00 GHz
! Package:     LP3  - 3x3 mm Quad Flatpack No-Lead (QFN) Plastic Package: 16 pin
! Ports:       2 RF, 7 DC
!              Pad  1  = Ground
!              Pad  2  = RF IN   = Port 1
!              Pad  3  = Ground
!              Pad  4  = V6
!              Pad  5  = V5
!              Pad  6  = V4
!              Pad  7  = V3
!              Pad  8  = V2
!              Pad  9  = V1
!              Pad 10  = Ground
!              Pad 11  = RF OUT  = Port 2
!              Pad 12  = Ground
!              Pad 15  = VEE
!
! Control:     -5 Volt control voltage
! State:        36 
! Attenuation:  18.0 dB
! Voltages:    Vdd = -5.00 Volts  Idd =  -2.276 mA
!              V1  = 0.00 Volts  I1  =  29.0 uA
!              V2  = 0.00 Volts  I2  =  29.0 uA
!              V3  = -5.00 Volts  I3  =  -1.0 uA
!              V4  = 0.00 Volts  I4  =  29.0 uA
!              V5  = 0.00 Volts  I5  =  29.0 uA
!              V6  = -5.00 Volts  I6  =  -1.0 uA
!
! Data:    The device was measured on evaluation board 105354-1. 
!          Data was collected using a calibrated network analyzer.
!          The evaluation circuit board was modeled and simulated.  This was use
!          to removed the evaluation board circuit from the measured data.
!          The reference plane is the edge of the package pin.
!
! Misc:    Lot xxxx, Unit 1
!          Application 20120001, Data collected in Application 20090083
!
! Date Measured:  2009-09-15
! Date:           2012-05-14  MJV
! Note: 
!   Hittite supplies this data as a sample of measured data at the package pin
!   for this product.  Your particular data for this product may vary.
!   Data was taken at 25 degrees C.
!   Hittite reserves the right to change this data at anytime.
!
# GHz S MA R 50

0.01	0.038848004	9.9015481	0.096552265	-0.95416249	0.093953392	-1.4375625	0.0441317	7.8437506	
0.11	0.03480564	-5.4497135	0.094722832	-2.2336919	0.09445059	-2.1243919	0.041345352	0.59558566	
0.21	0.035743426	-10.332409	0.094464227	-3.7321688	0.094301234	-3.7532688	0.040533654	-7.7405123	
0.31	0.037512038	-14.3099	0.09430016	-5.2781444	0.094159128	-5.2585444	0.045674215	-9.9229779	
0.41	0.038787377	-18.802427	0.094271574	-6.7368052	0.094108913	-6.7917052	0.046363216	-10.818206	
0.51	0.04091017	-22.716684	0.094099216	-8.3026461	0.093980122	-8.3501461	0.045498203	-12.98896	
0.61	0.042665885	-26.976877	0.093923679	-9.8271366	0.093848016	-9.8055366	0.046966753	-19.440976	
0.71	0.045871211	-30.096456	0.093853132	-11.344303	0.09376673	-11.343803	0.053261127	-20.971685	
0.81	0.048087095	-32.790547	0.093882735	-12.805657	0.093656028	-12.826657	0.053249611	-19.811754	
0.91	0.051385679	-34.810363	0.093746221	-14.347553	0.093595242	-14.353653	0.054486083	-24.733435	
1.01	0.053572043	-36.370239	0.093662468	-15.83702	0.093468569	-15.84722	0.057924662	-28.029997	
1.11	0.056354962	-38.440968	0.093522115	-17.322476	0.093371497	-17.280476	0.064499469	-27.333729	
1.21	0.058473293	-39.644503	0.093366965	-18.830361	0.093302491	-18.757061	0.063208673	-25.831044	
1.31	0.061055892	-41.165249	0.093313425	-20.273595	0.093281201	-20.359995	0.0656088	-30.457181	
1.41	0.06323373	-41.821282	0.093279942	-21.73258	0.093129713	-21.75088	0.070243629	-30.848302	
1.51	0.065028789	-43.233525	0.093193135	-23.234308	0.093096622	-23.215408	0.074316834	-29.619662	
1.61	0.067336304	-43.922162	0.093036602	-24.712862	0.092918853	-24.741462	0.07234113	-28.489671	
1.71	0.068656315	-44.969259	0.092962105	-26.162464	0.092823074	-26.169264	0.074113336	-32.89154	
1.81	0.070235882	-45.786681	0.092831286	-27.630114	0.092820599	-27.557014	0.078485829	-32.414753	
1.91	0.0709125	-46.692082	0.092843757	-29.107208	0.092715578	-29.068508	0.0796082	-31.828043	
2.01	0.071679295	-47.801607	0.092742705	-30.542351	0.092646658	-30.596251	0.077402661	-31.980188	
2.11	0.07220466	-49.118672	0.092702075	-32.038182	0.092552777	-32.060582	0.079296891	-36.474675	
2.21	0.072905323	-50.62295	0.09260384	-33.456365	0.092561204	-33.484765	0.083883596	-36.020496	
2.31	0.073346212	-52.037096	0.09253408	-35.002017	0.092448892	-34.926017	0.083053828	-35.826491	
2.41	0.073577246	-53.795715	0.092392389	-36.330894	0.09224359	-36.411894	0.081245655	-37.615948	
2.51	0.07395583	-55.609416	0.092384599	-37.888959	0.092214577	-37.875159	0.083950118	-41.774065	
2.61	0.073759133	-57.737749	0.092382292	-39.376557	0.092222891	-39.310257	0.087955517	-41.049342	
2.71	0.07435659	-59.813219	0.092228056	-40.776829	0.092153759	-40.824229	0.08564831	-41.698275	
2.81	0.073862073	-62.326228	0.092169881	-42.257153	0.092000254	-42.261253	0.084968281	-44.537294	
2.91	0.074850082	-64.729708	0.092009629	-43.68868	0.091946093	-43.77538	0.088295679	-47.909868	
3.01	0.074969844	-67.476424	0.091962845	-45.240603	0.091793599	-45.137003	0.091611423	-47.171638	
3.11	0.075787147	-70.192865	0.091934881	-46.616865	0.091723437	-46.623865	0.088166139	-48.38739	
3.21	0.076010026	-72.79486	0.091744601	-48.117194	0.09166014	-48.151494	0.088721219	-52.118756	
3.31	0.077163658	-75.942018	0.091694641	-49.616037	0.091589135	-49.524337	0.091923285	-54.516306	
3.41	0.078283474	-78.968137	0.0915781	-51.044926	0.091462197	-51.029626	0.094114548	-54.189458	
3.51	0.079868911	-81.851773	0.091522259	-52.453758	0.091427476	-52.518158	0.090630968	-56.56295	
3.61	0.081503308	-84.936416	0.091427928	-53.96962	0.091259666	-53.94002	0.093008926	-60.935183	
3.71	0.083933041	-87.587359	0.09128347	-55.370427	0.091178437	-55.453227	0.096854233	-62.664821	
3.81	0.086301775	-90.047995	0.091202082	-56.845036	0.091023756	-56.913036	0.097911179	-62.870496	
3.91	0.088811436	-92.518088	0.091108116	-58.292762	0.090846262	-58.288862	0.095474799	-66.460911	
4.01	0.096643461	-91.912424	0.091055332	-59.732546	0.09085637	-59.709446	0.10791548	-68.319048	
4.11	0.098950622	-93.419434	0.090958761	-61.181444	0.090864562	-61.180444	0.11216504	-68.60704	
4.21	0.10174262	-94.947062	0.090792993	-62.628117	0.090740744	-62.625517	0.11318532	-68.977166	
4.31	0.10484178	-95.906165	0.09070506	-64.072538	0.090475609	-64.048838	0.11312688	-71.723958	
4.41	0.10698899	-96.679015	0.090579746	-65.519909	0.090444279	-65.489909	0.12024682	-73.431248	
4.51	0.10931307	-97.415445	0.090371762	-66.951928	0.090392573	-66.980828	0.12334853	-72.499959	
4.61	0.11163417	-98.08726	0.090339422	-68.39143	0.090162783	-68.38793	0.12381393	-72.65746	
4.71	0.11415599	-98.402677	0.090290329	-69.814198	0.090082667	-69.803798	0.12417773	-74.425588	
4.81	0.11581319	-98.729691	0.090119208	-71.257947	0.089943	-71.210047	0.13129781	-75.211739	
4.91	0.11787142	-98.845631	0.089901031	-72.713462	0.089807927	-72.710162	0.13285575	-73.497348	
5.01	0.11916072	-98.934327	0.089818034	-74.089155	0.089683705	-74.102255	0.13199146	-73.963948	
5.11	0.12083085	-98.510366	0.089701576	-75.499133	0.089546801	-75.549833	0.13292205	-75.047599	
5.21	0.12149526	-98.400681	0.08967705	-76.903916	0.089573865	-76.930216	0.13885415	-75.537641	
5.31	0.12278472	-97.945055	0.089465955	-78.361434	0.089414469	-78.378234	0.13974991	-73.330609	
5.41	0.12300422	-97.261773	0.089412855	-79.784112	0.089238028	-79.811712	0.13805396	-74.131189	
5.51	0.12351477	-96.663856	0.089267167	-81.198151	0.089195255	-81.229551	0.14063361	-74.781096	
5.61	0.12333172	-95.64093	0.089191334	-82.587422	0.089088707	-82.612622	0.1453442	-74.587445	
5.71	0.12246552	-94.917514	0.089113364	-84.041192	0.088908409	-84.004192	0.14537008	-72.233055	
5.81	0.12162771	-93.624739	0.089004913	-85.390246	0.088769542	-85.447046	0.1428626	-72.868417	
5.91	0.12003591	-92.697934	0.088928232	-86.863425	0.088825908	-86.847725	0.14677153	-72.990052	
6.01	0.1186744	-91.339718	0.088948105	-88.259506	0.088702671	-88.259506	0.150325	-71.666504	
6.11	0.11674877	-90.019329	0.088675034	-89.701411	0.088593399	-89.672811	0.14927207	-69.287737	
6.21	0.11406238	-88.032677	0.088705432	-91.09946	0.088582966	-91.10906	0.14571689	-69.500596	
6.31	0.11136285	-86.690437	0.088645669	-92.523791	0.088472342	-92.540991	0.14914453	-68.944097	
6.41	0.10815653	-84.410552	0.088488064	-93.974692	0.088437141	-93.945392	0.1501328	-66.965283	
6.51	0.10406944	-82.361645	0.088492337	-95.43008	0.08843123	-95.38648	0.14778499	-64.437015	
6.61	0.099638399	-79.998816	0.088603991	-96.847363	0.088430745	-96.877763	0.14269933	-64.139692	
6.71	0.095161241	-77.881997	0.0886013	-98.334642	0.088417879	-98.366442	0.14438547	-63.470814	
6.81	0.090638248	-75.315567	0.08850348	-99.854971	0.088320261	-99.873771	0.14244461	-61.068998	
6.91	0.085434061	-72.333546	0.08849968	-101.3627	0.088255484	-101.3389	0.1384622	-59.095991	
7.01	0.079941113	-69.53844	0.088477292	-102.91762	0.088294128	-102.88512	0.13215549	-58.580484	
7.11	0.074591333	-66.217978	0.088413348	-104.37145	0.08828112	-104.41445	0.13269016	-58.475613	
7.21	0.068507128	-62.56429	0.088340599	-105.8895	0.088188172	-105.9437	0.1290562	-55.465933	
7.31	0.062508941	-57.974676	0.088355451	-107.45055	0.088192844	-107.44495	0.12263486	-54.552522	
7.41	0.056523258	-53.39741	0.088434562	-109.03389	0.088302303	-108.95249	0.1169338	-54.550832	
7.51	0.050671342	-47.016966	0.088443213	-110.54687	0.088351619	-110.53607	0.11583722	-54.711541	
7.61	0.044886752	-40.638682	0.088414933	-112.15961	0.088211584	-112.12171	0.11161517	-51.78191	
7.71	0.039619661	-31.936129	0.088513312	-113.76643	0.088289405	-113.71493	0.10356472	-51.244125	
7.81	0.034488558	-22.039367	0.088464374	-115.41489	0.088260911	-115.39919	0.097581734	-51.648218	
7.91	0.030985515	-8.8347555	0.08848924	-117.0014	0.088275556	-117.0027	0.094612838	-52.022111	
8.01	0.028837006	7.1410687	0.088322969	-118.67466	0.088170573	-118.67446	0.088388653	-49.200566	
8.11	0.027987333	24.648747	0.088387648	-120.34343	0.088194515	-120.31803	0.078758285	-49.857094	
8.21	0.029207539	41.244392	0.0883143	-122.01611	0.088121327	-122.02531	0.072090129	-51.486802	
8.31	0.032734365	56.121158	0.088268229	-123.60392	0.088085498	-123.58532	0.067475407	-52.368679	
8.41	0.037338836	68.220469	0.088149764	-125.26363	0.08801793	-125.26483	0.059467559	-50.138018	
8.51	0.042775225	78.319361	0.088182525	-126.98083	0.088050643	-127.00753	0.048273787	-54.424532	
8.61	0.048501271	86.033751	0.088086157	-128.6865	0.087984802	-128.7337	0.041947839	-62.268558	
8.71	0.055396636	92.916762	0.088145784	-130.37483	0.08795318	-130.39893	0.036678802	-68.414282	
8.81	0.061789926	98.841689	0.087981115	-132.13496	0.087798978	-132.07416	0.028013284	-75.477682	
8.91	0.068296645	104.24109	0.087954044	-133.82504	0.087822504	-133.88074	0.023875918	-104.47364	
9.01	0.074112773	108.47931	0.087953019	-135.577	0.08777094	-135.5482	0.027534786	-123.27231	
9.11	0.081511485	112.05139	0.087791732	-137.28956	0.087660434	-137.31136	0.032450863	-137.76463	
9.21	0.08774602	116.41913	0.087668581	-139.00403	0.087547546	-138.98513	0.036331265	-149.31976	
9.31	0.094508496	119.30952	0.087596665	-140.78746	0.087435455	-140.74416	0.048437792	-160.76316	
9.41	0.10159446	123.1411	0.087448378	-142.51097	0.087327647	-142.50277	0.058267694	-159.66724	
9.51	0.10770666	125.95662	0.087039018	-144.11571	0.086858831	-144.14881	0.063998628	-163.84525	
9.61	0.11390973	128.95223	0.086817014	-145.82662	0.086667216	-145.78732	0.074493072	-166.69552	
9.71	0.11878211	131.97336	0.086785125	-147.40191	0.086555624	-147.34501	0.0856635	-167.57024	
9.81	0.1236532	134.72691	0.086429121	-149.07222	0.086349554	-149.05232	0.094488061	-166.51366	
9.91	0.12832194	137.25933	0.086157051	-150.54166	0.086067824	-150.50746	0.10103317	-167.76804	
10.01	0.13250436	139.60923	0.086018117	-152.1445	0.085938928	-152.1221	0.11176119	-168.87605	
10.11	0.13712653	142.22782	0.085783805	-153.71804	0.085675236	-153.71894	0.1226909	-168.67604	
10.21	0.14083315	144.5472	0.085555073	-155.24452	0.08546647	-155.26772	0.13096227	-167.03501	
10.31	0.14443099	147.19575	0.085279936	-156.74735	0.085142591	-156.71975	0.13625904	-167.53305	
10.41	0.14739654	149.04758	0.085107857	-158.22451	0.084941447	-158.20031	0.1470464	-167.65136	
10.51	0.15125701	151.32162	0.084927082	-159.65062	0.084848897	-159.63962	0.15727095	-166.72094	
10.61	0.15376506	153.6544	0.084909034	-161.04775	0.084782047	-161.08155	0.16427777	-165.40437	
10.71	0.15620919	155.71694	0.084812908	-162.60749	0.084647075	-162.63539	0.16963451	-165.69558	
10.81	0.15844447	157.71769	0.084681019	-164.12734	0.084603061	-164.13164	0.18004709	-165.40407	
10.91	0.16021713	159.69901	0.084582674	-165.66756	0.084407572	-165.60426	0.18745065	-164.07992	
11.01	0.16231473	161.44204	0.084447426	-167.07249	0.084272604	-167.08879	0.19210154	-163.14319	
11.11	0.16334568	163.51021	0.084247463	-168.54127	0.084092417	-168.51327	0.19592647	-163.01443	
11.21	0.16424219	165.10685	0.084170785	-170.01011	0.083957864	-169.97641	0.20381108	-162.75099	
11.31	0.16515356	166.57213	0.083998671	-171.49009	0.083892361	-171.50629	0.20859393	-161.63931	
11.41	0.1663615	168.04765	0.083882719	-172.93423	0.08376691	-172.88533	0.21113794	-160.75509	
11.51	0.16680892	169.62815	0.083741121	-174.35222	0.083567762	-174.29782	0.21256385	-161.01915	
11.61	0.16723098	170.77465	0.083624743	-175.85408	0.083499678	-175.86038	0.21931975	-161.154	
11.71	0.16765812	172.09989	0.083548246	-177.33771	0.083384886	-177.35611	0.22190334	-160.31788	
11.81	0.16801278	173.22817	0.083448403	-178.72095	0.083294827	-178.80355	0.22339443	-160.4662	
11.91	0.16848941	174.28204	0.083314064	179.70113	0.08310331	179.72833	0.2253949	-160.72181	
12.01	0.1690671	175.31099	0.083206294	178.18965	0.083062726	178.18935	0.23065054	-161.05694	
12.11	0.16964984	176.22156	0.083057919	176.66505	0.082924153	176.68245	0.23243388	-160.3991	
12.21	0.17066485	177.05791	0.082881197	175.23033	0.082700096	175.22083	0.2334005	-161.07683	
12.31	0.17184317	177.76961	0.082704184	173.582	0.082618533	173.6125	0.23687369	-161.53619	
12.41	0.17337763	178.17754	0.082390111	171.95306	0.082238482	171.96356	0.24229208	-161.99092	
12.51	0.17407907	178.39168	0.08189546	170.45721	0.081688294	170.41461	0.24433773	-161.4158	
12.61	0.17428926	178.83999	0.081416738	169.21897	0.081313696	169.22857	0.24533669	-162.44744	
12.71	0.17522467	-179.95343	0.081401927	167.97296	0.081214708	168.00546	0.25084907	-162.88572	
12.81	0.17654356	-179.124	0.081425765	166.53092	0.081201088	166.54302	0.25561556	-163.19487	
12.91	0.17897717	-178.13688	0.081411292	165.06393	0.081261465	165.10333	0.25881551	-162.85577	
13.01	0.18122823	-177.44009	0.081365564	163.56179	0.081187775	163.60849	0.26105269	-163.69078	
13.11	0.18486173	-176.66385	0.081211457	162.00057	0.081052666	162.05297	0.26720215	-164.10474	
13.21	0.18801454	-175.77537	0.081037065	160.49417	0.080971783	160.48297	0.27180438	-164.23157	
13.31	0.1911484	-175.09878	0.080852762	158.87843	0.080685382	158.89683	0.27613624	-164.20486	
13.41	0.1950652	-174.36094	0.080587362	157.46563	0.080402017	157.51333	0.2796648	-164.77733	
13.51	0.19940923	-173.34424	0.08036063	156.03869	0.080277407	156.05709	0.28734821	-165.05501	
13.61	0.20416171	-172.53121	0.080269097	154.57133	0.080112148	154.60503	0.29323383	-164.89659	
13.71	0.20988631	-171.57866	0.08004281	153.07665	0.079923101	153.06955	0.29808674	-164.7268	
13.81	0.2152367	-170.35653	0.07979965	151.55878	0.079680304	151.55708	0.30344701	-165.08903	
13.91	0.22083165	-169.37758	0.07965548	150.13913	0.079389974	150.05483	0.31266591	-164.87477	
14.01	0.22764508	-168.32853	0.07927347	148.63878	0.079145799	148.58408	0.31800466	-164.31553	
14.11	0.23395514	-166.97032	0.079053558	147.11166	0.078926241	147.11466	0.32462803	-163.96597	
14.21	0.23990596	-165.78362	0.07876401	145.64742	0.078637159	145.72262	0.33057321	-163.77207	
14.31	0.24723603	-164.55776	0.078448894	144.2655	0.078277478	144.301	0.33999502	-163.1348	
14.41	0.2543528	-163.17711	0.078140239	142.81812	0.078068302	142.86572	0.34437197	-162.25311	
14.51	0.26177823	-161.75759	0.077877585	141.42055	0.077743211	141.51885	0.35110212	-161.76378	
14.61	0.2692429	-160.31633	0.077671828	140.06324	0.077511033	140.03874	0.35668105	-161.03248	
14.71	0.27647497	-158.75982	0.077267315	138.6663	0.07716064	138.6985	0.36527448	-160.18697	
14.81	0.28378667	-157.43811	0.077003133	137.26928	0.076870268	137.26978	0.36926878	-158.84897	
14.91	0.29161491	-155.76885	0.076717872	135.84627	0.076559053	135.93677	0.37431665	-158.21031	
15.01	0.29785384	-154.2814	0.076373681	134.50497	0.07626824	134.58147	0.37963654	-157.12803	
15.11	0.30427122	-152.7984	0.075926047	133.24398	0.075864883	133.25108	0.38597764	-156.194	
15.21	0.31054767	-151.29017	0.075639019	132.07629	0.075491123	132.06059	0.3893518	-154.61807	
15.31	0.3170726	-149.69665	0.075517253	130.80547	0.075386951	130.91217	0.39278645	-153.8305	
15.41	0.32278737	-148.2821	0.075358686	129.58169	0.075271976	129.63889	0.39763008	-152.47694	
15.51	0.32809434	-146.75951	0.0752317	128.34412	0.075084601	128.33852	0.40111613	-151.24797	
15.61	0.33134583	-145.16515	0.074984821	126.96986	0.074838205	126.99536	0.40275968	-149.63216	
15.71	0.33357027	-143.60504	0.074761208	125.76019	0.074649398	125.77569	0.40306415	-148.77932	
15.81	0.33760005	-141.80233	0.074486184	124.63041	0.074391913	124.65901	0.40718847	-147.40144	
15.91	0.34147816	-140.18572	0.074455218	123.43641	0.07432675	123.46381	0.40716614	-145.93631	
16.01	0.34285479	-138.62939	0.074451243	122.11658	0.074322781	122.15658	0.40638392	-144.47686	
16.11	0.34245835	-136.94503	0.074231085	120.8142	0.074128601	120.8106	0.40451654	-143.47684	
16.21	0.34273818	-134.86352	0.073876897	119.75509	0.073715471	119.74679	0.40598574	-142.11225	
16.31	0.34552775	-132.75145	0.073821922	118.78449	0.073660616	118.78779	0.40248048	-140.56019	
16.41	0.34766963	-130.90934	0.074111822	117.7651	0.07394137	117.7825	0.39860795	-139.39992	
16.51	0.34830194	-129.41292	0.074470291	116.52495	0.074264806	116.58175	0.39278597	-138.36527	
16.61	0.34759487	-128.16154	0.074717472	115.36782	0.074648687	115.42402	0.38953702	-137.39777	
16.71	0.34606291	-126.93426	0.075169205	114.11426	0.074944533	114.11876	0.38370597	-136.09074	
16.81	0.34138385	-125.73616	0.075643902	112.7941	0.075600371	112.8182	0.37600975	-135.09256	
16.91	0.33718133	-124.55442	0.076367228	111.27689	0.076226684	111.24619	0.36768624	-134.34147	
17.01	0.33013488	-123.53327	0.076846505	109.61944	0.076678591	109.55274	0.36029461	-133.62815	
17.11	0.322397	-122.75913	0.077120828	107.92941	0.076996624	107.95661	0.35011171	-132.72494	
17.21	0.31143367	-122.296	0.077692699	106.2428	0.077442653	106.273	0.33828828	-132.12769	
17.31	0.29852857	-121.79392	0.078156893	104.46828	0.078174885	104.52608	0.32579345	-131.92228	
17.41	0.2809368	-121.29558	0.078808698	102.59006	0.078636499	102.58876	0.31398707	-131.79606	
17.51	0.26116337	-120.3295	0.079289442	100.60301	0.079107082	100.63351	0.29761096	-131.79681	
17.61	0.24115596	-118.31727	0.079691571	98.711529	0.079618206	98.703829	0.2823839	-132.50169	
17.71	0.22571279	-116.17648	0.08065152	96.593449	0.080475291	96.644449	0.26579145	-133.34768	
17.81	0.20651703	-115.8193	0.081497912	93.96975	0.08133856	93.95625	0.25063944	-134.52287	
17.91	0.18508243	-113.92102	0.081228928	91.064311	0.081032777	91.075511	0.22957774	-135.66823	
18.01	0.16909339	-109.64033	0.080535259	88.76594	0.080368537	88.861338	0.21106496	-139.33648	
18.11	0.16046583	-108.59642	0.08038739	86.94727	0.080267167	86.924671	0.19301032	-142.29844	
18.21	0.14892258	-111.08229	0.080994763	84.793219	0.080836393	84.789619	0.17404514	-148.13119	
18.31	0.13128235	-115.25152	0.08150417	82.38544	0.081335446	82.392439	0.15575742	-153.92898	
18.41	0.10853422	-121.9535	0.081813683	79.758806	0.081569152	79.776306	0.1411453	-165.3711	
18.51	0.086043808	-130.33983	0.082215304	77.477235	0.081875255	77.457535	0.13778502	-174.51017	
18.61	0.06956281	-144.52624	0.083058125	74.858697	0.082781277	74.913997	0.13280213	173.7378	
18.71	0.062540657	-165.29735	0.083675213	71.857475	0.08352122	71.858575	0.13530108	162.31107	
18.81	0.065731198	164.29316	0.083888492	68.344547	0.083782324	68.366346	0.14568261	148.52034	
18.91	0.086259783	141.46737	0.083743766	64.874614	0.083580029	64.816516	0.16622935	140.26415	
19.01	0.10964429	126.97815	0.082961199	61.737845	0.082865737	61.723645	0.1836268	132.7729	
19.11	0.13240111	116.53361	0.082064986	58.772075	0.081876241	58.760875	0.20759948	127.35962	
19.21	0.15625234	113.1132	0.081721864	55.991187	0.081562075	55.994587	0.23023309	122.79435	
19.31	0.18208457	112.60818	0.081470194	52.843767	0.081479575	52.846467	0.25861796	119.387	
19.41	0.21268171	112.01114	0.080823382	49.661577	0.080646778	49.579877	0.28303707	116.80808	
19.51	0.2447257	110.79637	0.079957621	46.162141	0.079773724	46.204041	0.3104012	114.82547	
19.61	0.27716378	109.72511	0.078459169	42.915838	0.078404991	42.959037	0.33571909	113.71967	
19.71	0.30649318	108.64921	0.076775285	39.947167	0.076660462	40.02706	0.35858085	112.96872	
19.81	0.33398386	107.50568	0.074749334	37.521303	0.074585997	37.515903	0.38063649	111.82681	
19.91	0.35489411	107.35889	0.073292843	35.357657	0.073040146	35.267461	0.40551048	111.2878	
20.01	0.37385888	107.99428	0.072144463	33.38042	0.07192055	33.17142	0.42790255	111.22372	
