!
! Hittite Microwave Corporation
! 2 Elizabeth Drive
! Chelmsford, MA 01824
! http://www.hittite.com
! Tel: 978-250-3343
! Fax: 978-250-3373
! 
! Device:      HMC424LP3
! Description: 0.5 dB GaAs MMIC 6-Bit Digital Attenuator
! Frequency:    DC -  13.00 GHz
! Package:     LP3  - 3x3 mm Quad Flatpack No-Lead (QFN) Plastic Package: 16 pin
! Ports:       2 RF, 7 DC
!              Pad  1  = Ground
!              Pad  2  = RF IN   = Port1
!              Pad  3  = Ground
!              Pad  4  = V6
!              Pad  5  = V5
!              Pad  6  = V4
!              Pad  7  = V3
!              Pad  8  = V2
!              Pad  9  = V1
!              Pad 10  = Ground
!              Pad 11  = RF IN   = Port1
!              Pad 12  = Ground
!              Pad 15  = VEE
!
! Control:     -5 Volt control voltage
! State:        39 
! Attenuation:  19.5 dB
! Voltages:    Vdd = -5.00 Volts  Idd =  -2.523 mA
!              V1  = -5.00 Volts  I1  =  -1.0 uA
!              V2  = -5.00 Volts  I2  =  -1.0 uA
!              V3  = -5.00 Volts  I3  =  -1.0 uA
!              V4  = 0.00 Volts  I4  =  30.0 uA
!              V5  = 0.00 Volts  I5  =  29.0 uA
!              V6  = -5.00 Volts  I6  =  -1.0 uA
!
! Data:    The device was measured on evaluation board 105354-1. 
!          Data was collected using a calibrated network analyzer.
!          The evaluation circuit board was modeled and simulated.  This was use
!          to removed the evaluation board circuit from the measured data.
!          The reference plane is the edge of the package pin.
!
! Misc:    Lot xxxx, Unit 1
!          Application 20120001, Data collected in Application 20090083
!
! Date Measured:  2009-09-15
! Date:           2012-05-14  MJV
! Note: 
!   Hittite supplies this data as a sample of measured data at the package pin
!   for this product.  Your particular data for this product may vary.
!   Data was taken at 25 degrees C.
!   Hittite reserves the right to change this data at anytime.
!
# GHz S MA R 50

0.01	0.063494986	171.33	0.081745744	-1.1044681	0.080410942	-1.1325681	0.044309241	7.0286112	
0.11	0.066000325	179.28855	0.080555886	-2.2278528	0.080509528	-2.1471528	0.039854969	0.64798095	
0.21	0.064817374	179.32699	0.080357221	-3.6227401	0.080366473	-3.6953401	0.039200826	-7.7615631	
0.31	0.063132899	178.97524	0.080313406	-5.2359823	0.080193293	-5.1566823	0.0444669	-9.9510152	
0.41	0.062356013	179.09466	0.080293212	-6.7155028	0.080173128	-6.6582028	0.045200491	-10.868961	
0.51	0.060768053	179.29679	0.080132874	-8.2438427	0.079994609	-8.2351427	0.044312573	-13.004368	
0.61	0.059786446	179.85522	0.080127228	-9.7219675	0.079970557	-9.7264675	0.045785257	-19.551221	
0.71	0.057394503	-179.44501	0.07996253	-11.183204	0.079852134	-11.272804	0.052086681	-21.162719	
0.81	0.055697743	-179.31118	0.080040331	-12.653236	0.079856243	-12.687536	0.052027473	-19.946028	
0.91	0.053197401	-178.84813	0.079820431	-14.20925	0.079746948	-14.20355	0.05327978	-24.804193	
1.01	0.051275632	-179.21083	0.079801922	-15.650507	0.079655057	-15.668807	0.056740464	-28.099342	
1.11	0.049108256	-178.58326	0.079762544	-17.082041	0.079670767	-17.077541	0.063317061	-27.39657	
1.21	0.047122761	-179.20164	0.079701313	-18.574685	0.079582115	-18.663885	0.062040819	-25.844239	
1.31	0.044934818	-178.92443	0.079698883	-20.113833	0.079598015	-20.128933	0.064431365	-30.46912	
1.41	0.04254231	-179.64428	0.079575561	-21.518207	0.079502303	-21.548207	0.069002242	-30.925184	
1.51	0.040888886	179.924	0.079552806	-23.012446	0.079479569	-22.997446	0.073099104	-29.583438	
1.61	0.038387432	179.31975	0.07946067	-24.534667	0.07936924	-24.540767	0.071173923	-28.473119	
1.71	0.036776173	178.15446	0.079392078	-25.994211	0.07934639	-25.984211	0.072932299	-32.850511	
1.81	0.034777928	177.12736	0.079384139	-27.372381	0.079375	-27.400181	0.077317377	-32.459197	
1.91	0.033546948	174.99759	0.079324592	-28.878539	0.079196839	-28.922539	0.078548414	-31.802105	
2.01	0.032377816	173.48272	0.079249462	-30.294329	0.079112721	-30.387329	0.076403995	-31.883428	
2.11	0.031657393	171.72076	0.079179928	-31.81113	0.079179928	-31.79913	0.078222295	-36.39057	
2.21	0.030916456	170.6535	0.079106061	-33.246615	0.079160725	-33.254415	0.082771965	-35.923318	
2.31	0.030299493	169.05917	0.079146867	-34.699205	0.078992112	-34.738805	0.08200686	-35.67281	
2.41	0.030046353	168.09251	0.079007142	-36.093465	0.078816356	-36.184665	0.080218725	-37.49253	
2.51	0.02995568	166.8277	0.079054832	-37.649181	0.078936601	-37.558881	0.082792563	-41.703425	
2.61	0.030318484	165.9004	0.078988313	-39.064861	0.078897426	-39.084861	0.086835322	-40.950817	
2.71	0.030228115	165.81883	0.078919236	-40.557409	0.078828429	-40.545209	0.084551368	-41.598364	
2.81	0.031200657	164.70808	0.078786772	-42.028813	0.078768633	-42.001713	0.083975837	-44.403622	
2.91	0.031125129	165.58114	0.078803368	-43.429586	0.078730821	-43.455486	0.087163077	-47.851312	
3.01	0.032202637	165.81067	0.078781141	-44.931422	0.078627101	-44.942822	0.090582878	-47.046362	
3.11	0.032701763	166.78399	0.078639462	-46.322852	0.078530892	-46.351352	0.087093648	-48.195262	
3.21	0.033648572	166.83349	0.078558945	-47.798876	0.07849566	-47.807176	0.087602797	-51.963992	
3.31	0.034667426	168.3471	0.078535736	-49.3416	0.078427309	-49.2347	0.090864266	-54.388937	
3.41	0.035820089	169.63799	0.078438311	-50.741541	0.078375122	-50.745741	0.093103964	-54.066645	
3.51	0.036930052	171.32862	0.078394004	-52.116997	0.078267749	-52.209597	0.089522157	-56.384094	
3.61	0.038281108	172.86731	0.078299355	-53.633164	0.078245287	-53.625964	0.091964963	-60.873453	
3.71	0.03926724	175.18155	0.078279873	-55.087067	0.078063876	-55.040167	0.095931422	-62.594649	
3.81	0.040234279	177.41	0.078243143	-56.506978	0.078000303	-56.551378	0.096963395	-62.657516	
3.91	0.041408951	179.46885	0.078115755	-57.93518	0.078052827	-57.92028	0.094502293	-66.319071	
4.01	0.038592934	-170.45905	0.078150834	-59.460301	0.078042939	-59.394501	0.10690494	-68.221279	
4.11	0.038996966	-168.50333	0.07811306	-60.867575	0.077987258	-60.890875	0.11110534	-68.495255	
4.21	0.039530236	-166.0563	0.077962419	-62.259717	0.077953444	-62.354517	0.1120997	-68.887515	
4.31	0.039448111	-162.58108	0.077887743	-63.704386	0.077798123	-63.752386	0.11199417	-71.607837	
4.41	0.038898389	-160.21441	0.077888714	-65.227057	0.077709575	-65.225657	0.11915532	-73.289802	
4.51	0.038530184	-157.44563	0.077764717	-66.658322	0.077657355	-66.689022	0.12229302	-72.353961	
4.61	0.038128279	-154.64644	0.077737958	-68.082971	0.077577026	-68.074871	0.1227752	-72.520578	
4.71	0.037457367	-150.72139	0.077642321	-69.502336	0.07749943	-69.530136	0.12322586	-74.27416	
4.81	0.036614086	-147.65534	0.077619961	-70.989105	0.077494953	-71.006205	0.13031391	-75.054679	
4.91	0.03573482	-143.35525	0.077483706	-72.445457	0.077367824	-72.450857	0.13192487	-73.33122	
5.01	0.034711874	-139.61499	0.077444687	-73.843986	0.077364483	-73.902286	0.1310221	-73.757509	
5.11	0.033425045	-133.56397	0.077338774	-75.276615	0.07725868	-75.282315	0.1320621	-74.880323	
5.21	0.032094573	-128.96909	0.077292179	-76.750248	0.077221023	-76.727148	0.13796772	-75.346219	
5.31	0.031273769	-122.3218	0.07717194	-78.211313	0.077136409	-78.292513	0.13882208	-73.172331	
5.41	0.029823132	-115.19203	0.077139924	-79.637053	0.077051165	-79.625053	0.13728126	-73.945927	
5.51	0.029212167	-107.43287	0.077086813	-81.07528	0.076980387	-81.14058	0.13985697	-74.567665	
5.61	0.028449347	-97.876259	0.076940594	-82.514591	0.076887463	-82.569991	0.14453514	-74.396664	
5.71	0.027751789	-89.16275	0.076779896	-84.000257	0.076682722	-84.047957	0.14460856	-72.042654	
5.81	0.028312765	-77.936094	0.07678249	-85.423084	0.076658831	-85.457884	0.14210723	-72.649541	
5.91	0.028671544	-68.447084	0.076782892	-86.866783	0.076571026	-86.911283	0.14600583	-72.756264	
6.01	0.03062394	-58.211839	0.076676387	-88.36884	0.076614618	-88.37594	0.14960999	-71.468936	
6.11	0.032741328	-48.88934	0.076559874	-89.788728	0.076436573	-89.868028	0.14849445	-68.980023	
6.21	0.036115398	-38.987968	0.076568571	-91.236497	0.07637488	-91.237397	0.14513037	-69.209801	
6.31	0.039102044	-31.903489	0.076479373	-92.690041	0.076338622	-92.764541	0.14846091	-68.714716	
6.41	0.04378809	-24.283427	0.076300386	-94.173917	0.076256476	-94.171117	0.1493812	-66.709082	
6.51	0.048133012	-17.642532	0.076290578	-95.695645	0.076141408	-95.660045	0.14711899	-64.129003	
6.61	0.052934299	-11.502304	0.07624778	-97.170777	0.076133747	-97.176777	0.14211004	-63.80739	
6.71	0.05744903	-6.6569572	0.076165122	-98.622998	0.076051212	-98.658898	0.14384487	-63.169522	
6.81	0.062744787	-2.2431575	0.076109715	-100.19115	0.076013389	-100.18325	0.14202708	-60.730807	
6.91	0.068035135	2.0652202	0.076048307	-101.70372	0.075943315	-101.70382	0.13799515	-58.761906	
7.01	0.07288992	5.9507962	0.075974826	-103.2401	0.075904882	-103.2462	0.13171855	-58.20982	
7.11	0.078070121	9.4277546	0.075925446	-104.75061	0.075811895	-104.72631	0.1323839	-58.107034	
7.21	0.082907576	13.006748	0.075790196	-106.2647	0.075598475	-106.2555	0.12866905	-55.058971	
7.31	0.088444064	16.333852	0.075778129	-107.78252	0.075664798	-107.79102	0.12231211	-54.091714	
7.41	0.093038306	19.352132	0.075770875	-109.29119	0.075605311	-109.33059	0.11659502	-54.089593	
7.51	0.098234159	22.328407	0.075719914	-110.87875	0.075658915	-110.85675	0.11550766	-54.171061	
7.61	0.10228828	25.048901	0.075674822	-112.44661	0.075535552	-112.38131	0.11137946	-51.253347	
7.71	0.10673808	27.739979	0.075668471	-114.05362	0.075511824	-114.02252	0.10345314	-50.652723	
7.81	0.110053	30.396566	0.075583129	-115.61243	0.075487469	-115.63603	0.09754842	-50.993186	
7.91	0.11384966	32.823578	0.075563951	-117.21522	0.075442254	-117.24462	0.094489392	-51.300659	
8.01	0.11715406	35.356469	0.075482257	-118.77522	0.075369369	-118.84432	0.088495283	-48.416073	
8.11	0.11968566	38.0232	0.075514363	-120.45182	0.075366711	-120.47182	0.078903738	-48.983861	
8.21	0.12182046	40.429691	0.075406986	-122.12119	0.075233555	-122.05809	0.072198486	-50.532061	
8.31	0.12402419	42.952833	0.075390696	-123.67576	0.07529528	-123.70376	0.067472248	-51.373017	
8.41	0.12565334	45.506153	0.075283086	-125.2535	0.075179151	-125.314	0.059680661	-49.069978	
8.51	0.12671358	48.132696	0.075395248	-126.9362	0.07518721	-126.9181	0.048456456	-52.951964	
8.61	0.12734884	50.653053	0.075352201	-128.66166	0.075196209	-128.63196	0.042105689	-60.409216	
8.71	0.1278167	53.422448	0.075330302	-130.26874	0.075208981	-130.23394	0.036667602	-66.399406	
8.81	0.12738588	56.297944	0.075297351	-131.9579	0.075141472	-131.9492	0.027945655	-72.922932	
8.91	0.12608333	59.070828	0.075338411	-133.63832	0.075225738	-133.66032	0.023267874	-102.08664	
9.01	0.12474399	61.623317	0.07531698	-135.34479	0.075195681	-135.33059	0.026567241	-121.31784	
9.11	0.12407893	64.569115	0.075311118	-136.99782	0.075172517	-137.03372	0.031428224	-136.75517	
9.21	0.12144961	67.878176	0.075211749	-138.73973	0.075177121	-138.70383	0.035248751	-148.55087	
9.31	0.12004895	70.789323	0.075310057	-140.54318	0.075188769	-140.47048	0.047189692	-160.46124	
9.41	0.11751274	74.776878	0.075167794	-142.20452	0.075055376	-142.24342	0.056914052	-159.17287	
9.51	0.11527346	78.035693	0.074876927	-143.96253	0.07474773	-143.90253	0.062733246	-163.47254	
9.61	0.11261691	81.608153	0.074699017	-145.53324	0.074621657	-145.49764	0.073303804	-166.41345	
9.71	0.10877201	85.110919	0.07475103	-147.13186	0.074596282	-147.15916	0.084380926	-167.28442	
9.81	0.10507319	88.793513	0.074541001	-148.73597	0.074420952	-148.82877	0.093501951	-166.3164	
9.91	0.10160126	92.553371	0.07431753	-150.23075	0.074240565	-150.26905	0.099879208	-167.6049	
10.01	0.098041822	96.444296	0.074332008	-151.86829	0.074280679	-151.87689	0.1107246	-168.61502	
10.11	0.094627657	101.10241	0.074192147	-153.50141	0.07407266	-153.49631	0.12153021	-168.42053	
10.21	0.090922354	105.61882	0.074091674	-155.02763	0.073853215	-155.06123	0.12984616	-166.77226	
10.31	0.087200585	110.89874	0.073882902	-156.60353	0.07374693	-156.57643	0.13522552	-167.22473	
10.41	0.084374812	115.36864	0.07374915	-158.11976	0.073596475	-158.03606	0.14619967	-167.38581	
10.51	0.081976239	121.19324	0.073677135	-159.51976	0.073533075	-159.53146	0.15632692	-166.46586	
10.61	0.079476307	127.09429	0.073774151	-161.01561	0.073587529	-161.05031	0.16328881	-165.22735	
10.71	0.07722983	133.13076	0.073650517	-162.60085	0.073548836	-162.57145	0.16886955	-165.42983	
10.81	0.076020541	139.2207	0.07366508	-164.11549	0.073537974	-164.14879	0.17921971	-165.10652	
10.91	0.074653948	145.31851	0.073587664	-165.65437	0.073536849	-165.69527	0.18668163	-163.83884	
11.01	0.074940085	151.41728	0.073516321	-167.16991	0.073381024	-167.21901	0.19140683	-162.86573	
11.11	0.074531541	158.02133	0.07344338	-168.72935	0.073266029	-168.71845	0.1953877	-162.78086	
11.21	0.07510235	163.48049	0.073306045	-170.24005	0.073196412	-170.23355	0.2031068	-162.48048	
11.31	0.076115582	168.86988	0.073306684	-171.72269	0.073188623	-171.79719	0.20805176	-161.4079	
11.41	0.078303578	173.8055	0.073240113	-173.27706	0.073046432	-173.26546	0.21076522	-160.51308	
11.51	0.079988833	178.92813	0.073075644	-174.77543	0.072974756	-174.74483	0.2120816	-160.75002	
11.61	0.082155847	-177.11259	0.073034703	-176.37168	0.072833179	-176.34538	0.21876172	-160.93741	
11.71	0.084793029	-172.96328	0.072979731	-177.82869	0.072845421	-177.84259	0.22138052	-160.06147	
11.81	0.087636443	-169.54841	0.07282762	-179.35887	0.072718702	-179.35477	0.22305037	-160.22788	
11.91	0.090866886	-166.43872	0.072676583	179.04537	0.072601317	179.10017	0.22502242	-160.48969	
12.01	0.094273006	-163.59076	0.072679903	177.55564	0.072487703	177.50634	0.23025411	-160.80589	
12.11	0.097937416	-161.30161	0.072483923	175.9181	0.072433871	175.975	0.23209767	-160.22221	
12.21	0.10196921	-159.31704	0.072364668	174.36135	0.072373	174.38425	0.23321744	-160.87703	
12.31	0.10631198	-157.77621	0.072303641	172.71741	0.072212132	172.72251	0.23661729	-161.33106	
12.41	0.11038039	-156.99938	0.072012108	170.93841	0.071896131	170.94911	0.24223827	-161.81946	
12.51	0.11332422	-156.38087	0.071536089	169.38681	0.071330488	169.33581	0.2440949	-161.22643	
12.61	0.11603246	-155.17337	0.071063304	168.1512	0.070859062	168.1792	0.24506847	-162.24764	
12.71	0.12092032	-153.17656	0.07090706	166.83641	0.070841782	166.82931	0.25061468	-162.68125	
12.81	0.12584387	-151.91142	0.070899073	165.42066	0.070752299	165.43066	0.25534291	-162.9954	
12.91	0.13207416	-150.85371	0.071042502	163.93636	0.070879109	163.90226	0.25876387	-162.67324	
13.01	0.13767701	-150.24152	0.07094943	162.36946	0.070851478	162.40906	0.26093119	-163.47963	
13.11	0.14477636	-149.80183	0.070849293	160.74878	0.070661934	160.80408	0.2672084	-163.92219	
13.21	0.15147641	-149.27186	0.070764277	159.18984	0.070625913	159.14984	0.27169642	-164.08058	
13.31	0.15801302	-148.93943	0.070494517	157.53962	0.070389088	157.52482	0.2760288	-164.0345	
13.41	0.16520796	-148.7176	0.070266755	156.15488	0.07004867	156.08778	0.2795376	-164.61177	
13.51	0.17329096	-148.25943	0.070055155	154.58822	0.069934278	154.54712	0.2873606	-164.90398	
13.61	0.18117446	-148.12734	0.069875531	153.08453	0.06979513	153.09293	0.29323499	-164.76823	
13.71	0.19074204	-147.93242	0.069809122	151.51526	0.069640547	151.47896	0.29816222	-164.59341	
13.81	0.19986105	-147.43754	0.069524322	149.96643	0.069372407	149.95493	0.30346836	-164.96171	
13.91	0.20910303	-147.2262	0.069324408	148.49525	0.069125163	148.47115	0.3127909	-164.72221	
14.01	0.21953573	-147.06065	0.069015426	146.91255	0.068880481	146.88345	0.3181101	-164.19346	
14.11	0.22984153	-146.51419	0.068740229	145.31343	0.068597924	145.32953	0.32478454	-163.85418	
14.21	0.23950755	-146.06956	0.068505084	143.81041	0.068316058	143.87951	0.33064248	-163.66558	
14.31	0.25062665	-145.71116	0.068115391	142.35509	0.067982207	142.37679	0.3400658	-163.03133	
14.41	0.261371	-145.15368	0.067872986	140.98073	0.067771478	140.95133	0.34453503	-162.14354	
14.51	0.27263127	-144.58233	0.067565842	139.4981	0.067441495	139.5384	0.35124335	-161.66427	
14.61	0.2836494	-143.96304	0.06725613	138.04386	0.067178743	138.02056	0.35681029	-160.93882	
14.71	0.2947389	-143.2132	0.066889036	136.59897	0.066819764	136.65537	0.36538066	-160.10245	
14.81	0.30525254	-142.66141	0.066594418	135.14153	0.066487167	135.20443	0.3692994	-158.76584	
14.91	0.31670782	-141.77037	0.066296302	133.73029	0.06615144	133.79139	0.37444054	-158.11968	
15.01	0.32613345	-140.97773	0.065848152	132.36753	0.065742103	132.37243	0.37976458	-157.04909	
15.11	0.33571686	-140.17299	0.065436203	131.04843	0.065300738	131.15433	0.38606127	-156.11143	
15.21	0.34497779	-139.31697	0.065030959	129.94919	0.064978571	129.89279	0.38964087	-154.52299	
15.31	0.35443155	-138.41736	0.06488421	128.73554	0.06483194	128.73094	0.39300837	-153.74302	
15.41	0.36269811	-137.60903	0.064703236	127.55292	0.064628786	127.49322	0.3979381	-152.37403	
15.51	0.37045102	-136.69901	0.064533558	126.22766	0.064533558	126.24276	0.40131775	-151.17268	
15.61	0.37591095	-135.6365	0.064379656	124.84675	0.064216799	124.82065	0.40279354	-149.53527	
15.71	0.38052559	-134.5242	0.064059233	123.55544	0.063867767	123.64924	0.40340523	-148.67229	
15.81	0.38720781	-133.22315	0.063669631	122.54667	0.063647644	122.59147	0.40727639	-147.30493	
15.91	0.39339784	-132.17736	0.063626262	121.2841	0.063582326	121.3714	0.4074471	-145.84727	
16.01	0.39667637	-131.08903	0.06362499	120.06424	0.063507896	120.02404	0.40666876	-144.39375	
16.11	0.39804805	-129.83656	0.063376892	118.69775	0.06324569	118.65385	0.40490811	-143.35466	
16.21	0.40081621	-128.22047	0.062924476	117.75601	0.06279421	117.61851	0.40643049	-141.99809	
16.31	0.40596263	-126.68297	0.06268374	116.81191	0.062539571	116.81811	0.40284158	-140.4412	
16.41	0.41016555	-125.34972	0.062837193	115.92426	0.062707108	115.92436	0.39908043	-139.27697	
16.51	0.4125306	-124.35914	0.063087628	114.79849	0.062964274	114.91969	0.39347714	-138.24112	
16.61	0.41320997	-123.60252	0.063416314	113.74414	0.063314181	113.84924	0.39018771	-137.29573	
16.71	0.41288192	-122.77561	0.063776293	112.66342	0.063614962	112.66632	0.38450701	-135.97238	
16.81	0.40934706	-121.98937	0.064311797	111.45945	0.06417866	111.46175	0.37691583	-134.97995	
16.91	0.40612906	-121.24241	0.065002786	109.93383	0.064860751	109.98623	0.36847045	-134.21898	
17.01	0.4000103	-120.63309	0.065410506	108.37295	0.065342765	108.39365	0.36122932	-133.4774	
17.11	0.39278204	-120.27382	0.065866505	106.82703	0.065737717	106.86213	0.3511279	-132.58701	
17.21	0.38236517	-120.13932	0.066399264	105.23618	0.066261803	105.30468	0.33937551	-132.01958	
17.31	0.36963374	-119.99676	0.067030419	103.47332	0.066984127	103.51472	0.32683739	-131.82323	
17.41	0.35222472	-119.87301	0.067783052	101.66568	0.067658304	101.65498	0.31504975	-131.64422	
17.51	0.33245758	-119.34678	0.068309391	99.549847	0.068222931	99.59815	0.29877726	-131.68165	
17.61	0.31354716	-118.10042	0.068960586	97.503438	0.068809902	97.585038	0.28348957	-132.39044	
17.71	0.29833886	-116.88055	0.069789251	95.303713	0.06962874	95.392313	0.26694899	-133.2539	
17.81	0.27983629	-117.26996	0.070604876	92.585826	0.070539877	92.623226	0.25174837	-134.38914	
17.91	0.25776828	-116.51702	0.070467728	89.458813	0.070419068	89.512313	0.23070151	-135.55546	
18.01	0.24192669	-114.28927	0.069737582	86.898362	0.069625266	86.874564	0.21218974	-139.1843	
18.11	0.23386496	-114.53684	0.069322347	85.008864	0.069178841	85.039265	0.19439246	-142.12598	
18.21	0.22376418	-117.57984	0.069575165	83.083162	0.06955914	83.14466	0.17545503	-147.9397	
18.31	0.20744377	-122.09446	0.070083775	80.790277	0.069938692	80.859972	0.15732054	-153.76218	
18.41	0.18605146	-128.30676	0.070395263	78.240579	0.070225273	78.262779	0.14248918	-165.11185	
18.51	0.16455943	-135.12475	0.070902017	76.075542	0.070869372	76.012242	0.13918442	-174.13517	
18.61	0.14909281	-144.00552	0.071820167	73.412843	0.071589019	73.374943	0.13389913	174.01336	
18.71	0.14103334	-155.08007	0.072589499	70.387976	0.072439226	70.359476	0.13650805	162.73028	
18.81	0.13480753	-171.32027	0.07286497	66.769441	0.072730867	66.716243	0.14631571	148.98345	
18.91	0.14087243	171.52995	0.072905559	63.224448	0.072796521	63.22025	0.16685519	140.73489	
19.01	0.15059973	156.60562	0.072354651	59.879839	0.072246441	59.915539	0.18426185	133.07817	
19.11	0.16240815	144.22093	0.071714257	56.798719	0.071466997	56.779024	0.20826491	127.81055	
19.21	0.18282855	137.39674	0.071438194	53.776303	0.071208275	53.816803	0.23068655	123.04428	
19.31	0.20988707	133.29938	0.071131387	50.412242	0.071098638	50.372442	0.25898245	119.66486	
19.41	0.2423173	129.5505	0.070500054	47.004455	0.070337909	47.083555	0.28373049	117.02047	
19.51	0.27507555	125.63486	0.069447136	43.551073	0.069303367	43.512773	0.31095873	114.97209	
19.61	0.30832375	122.47283	0.068219254	40.1963	0.068117235	40.116605	0.33619033	113.85421	
19.71	0.33875721	119.67057	0.066618964	37.068595	0.066435144	37.191494	0.35900353	113.0858	
19.81	0.36609249	117.21434	0.064782647	34.637055	0.064514704	34.521264	0.38126561	111.92763	
19.91	0.38783332	116.10428	0.063346582	32.264732	0.063193623	32.293534	0.40599409	111.42819	
20.01	0.40902977	115.95176	0.061997865	30.136635	0.062019282	30.048535	0.42837946	111.30449	
