!
! Hittite Microwave Corporation
! 2 Elizabeth Drive
! Chelmsford, MA 01824
! http://www.hittite.com
! Tel: 978-250-3343
! Fax: 978-250-3373
! 
! Device:      HMC424LP3
! Description: 0.5 dB GaAs MMIC 6-Bit Digital Attenuator
! Frequency:    DC -  13.00 GHz
! Package:     LP3  - 3x3 mm Quad Flatpack No-Lead (QFN) Plastic Package: 16 pin
! Ports:       2 RF, 7 DC
!              Pad  1  = Ground
!              Pad  2  = RF IN   = Port 1
!              Pad  3  = Ground
!              Pad  4  = V6
!              Pad  5  = V5
!              Pad  6  = V4
!              Pad  7  = V3
!              Pad  8  = V2
!              Pad  9  = V1
!              Pad 10  = Ground
!              Pad 11  = RF OUT  = Port 2
!              Pad 12  = Ground
!              Pad 15  = VEE
!
! Control:     -5 Volt control voltage
! State:        38 
! Attenuation:  19.0 dB
! Voltages:    Vdd = -5.00 Volts  Idd =  -2.399 mA
!              V1  = 0.00 Volts  I1  =  30.0 uA
!              V2  = -5.00 Volts  I2  =  -1.0 uA
!              V3  = -5.00 Volts  I3  =  -1.0 uA
!              V4  = 0.00 Volts  I4  =  30.0 uA
!              V5  = 0.00 Volts  I5  =  30.0 uA
!              V6  = -5.00 Volts  I6  =  -1.0 uA
!
! Data:    The device was measured on evaluation board 105354-1. 
!          Data was collected using a calibrated network analyzer.
!          The evaluation circuit board was modeled and simulated.  This was use
!          to removed the evaluation board circuit from the measured data.
!          The reference plane is the edge of the package pin.
!
! Misc:    Lot xxxx, Unit 1
!          Application 20120001, Data collected in Application 20090083
!
! Date Measured:  2009-09-15
! Date:           2012-05-14  MJV
! Note: 
!   Hittite supplies this data as a sample of measured data at the package pin
!   for this product.  Your particular data for this product may vary.
!   Data was taken at 25 degrees C.
!   Hittite reserves the right to change this data at anytime.
!
# GHz S MA R 50

0.01	0.041230571	169.29859	0.085923987	-0.73400953	0.085637587	-2.5178095	0.043905668	7.3428108	
0.11	0.043282929	-179.78075	0.084661823	-2.190457	0.084603361	-2.148457	0.040295977	0.6847597	
0.21	0.042579269	-178.71091	0.084539945	-3.6590358	0.08438436	-3.7153358	0.039639484	-7.6795661	
0.31	0.041076027	-178.02834	0.084356916	-5.2170313	0.084259853	-5.2075313	0.045026004	-10.059126	
0.41	0.040385635	-176.64723	0.084286198	-6.6339807	0.084295902	-6.7150807	0.045656804	-10.729136	
0.51	0.038900796	-174.97845	0.084136005	-8.2144348	0.084029521	-8.2879348	0.044765934	-12.974919	
0.61	0.038394982	-173.03167	0.084080362	-9.7426113	0.083964281	-9.7442113	0.046230459	-19.483686	
0.71	0.036387212	-170.49182	0.084031776	-11.245929	0.083925424	-11.236029	0.052561486	-21.062484	
0.81	0.035117608	-168.70759	0.083986139	-12.726016	0.083802624	-12.658616	0.052499836	-19.945342	
0.91	0.033102188	-165.85472	0.083879146	-14.222182	0.083792279	-14.216182	0.053784948	-24.720588	
1.01	0.031609204	-164.65031	0.08387736	-15.662986	0.083732634	-15.685486	0.05726435	-28.079569	
1.11	0.030113065	-161.56293	0.083757205	-17.166063	0.083612686	-17.145563	0.063796828	-27.353639	
1.21	0.028594935	-160.08204	0.083672025	-18.606228	0.083566128	-18.667528	0.062438724	-25.793661	
1.31	0.027166954	-157.12657	0.083639033	-20.119042	0.083513946	-20.172342	0.064837412	-30.481856	
1.41	0.025271125	-155.51437	0.083594787	-21.589308	0.083450549	-21.569408	0.069515328	-30.891501	
1.51	0.024328013	-153.22207	0.083521537	-23.072009	0.083396625	-23.081609	0.073520945	-29.463124	
1.61	0.022526681	-150.2865	0.083385176	-24.531862	0.08328923	-24.552762	0.0716751	-28.454032	
1.71	0.021452942	-148.96497	0.083283543	-26.005155	0.083264369	-26.016355	0.07341082	-32.841556	
1.81	0.020071121	-146.53447	0.083284022	-27.459352	0.08320735	-27.401752	0.077830713	-32.419846	
1.91	0.019011802	-146.6691	0.083336043	-28.948072	0.083125232	-28.972672	0.079032443	-31.821428	
2.01	0.01816393	-145.87533	0.083218447	-30.309489	0.082998379	-30.345789	0.07678904	-31.946971	
2.11	0.017714559	-146.1706	0.083145154	-31.859091	0.08306861	-31.880991	0.078691246	-36.516996	
2.21	0.017418913	-145.73771	0.083105786	-33.278351	0.08299105	-33.327651	0.083249233	-35.915472	
2.31	0.017147124	-145.54874	0.083043438	-34.762961	0.082938337	-34.734061	0.082479693	-35.761995	
2.41	0.017359234	-145.80484	0.082878041	-36.180276	0.082858959	-36.223976	0.080629026	-37.584323	
2.51	0.017523722	-146.74291	0.082890115	-37.702662	0.082766148	-37.588362	0.083215349	-41.752537	
2.61	0.018166632	-148.20541	0.08286825	-39.160033	0.082696698	-39.177233	0.087298898	-40.991792	
2.71	0.018704316	-147.93118	0.082748371	-40.571843	0.082653158	-40.575743	0.085007528	-41.581121	
2.81	0.019687969	-151.17795	0.08274314	-42.054434	0.082581354	-42.018534	0.084401924	-44.420552	
2.91	0.020834523	-149.99477	0.082713333	-43.511232	0.082551605	-43.470932	0.087583693	-47.847187	
3.01	0.022273502	-151.37174	0.082613922	-44.998518	0.082442896	-44.963218	0.090974355	-47.119613	
3.11	0.023866053	-151.23944	0.082512937	-46.362742	0.082351601	-46.426642	0.087580108	-48.300292	
3.21	0.025185284	-152.56241	0.082399793	-47.821662	0.082304982	-47.827362	0.088049802	-52.033539	
3.31	0.027282586	-152.70977	0.082356303	-49.361702	0.082261542	-49.309202	0.091319078	-54.471725	
3.41	0.029316612	-152.82081	0.082338893	-50.765991	0.082168437	-50.821491	0.093421061	-54.097722	
3.51	0.03159846	-152.54783	0.082272741	-52.235351	0.082036281	-52.247951	0.089907618	-56.48808	
3.61	0.034099914	-152.62575	0.082200739	-53.674637	0.082040013	-53.667437	0.092442613	-60.851614	
3.71	0.036412118	-151.39638	0.082094063	-55.128374	0.081952414	-55.120374	0.096254192	-62.599404	
3.81	0.038701992	-150.62583	0.081978933	-56.592577	0.081922324	-56.613577	0.097280714	-62.770839	
3.91	0.041174126	-149.87081	0.081928591	-58.029459	0.081777812	-58.001359	0.094872044	-66.377241	
4.01	0.043061238	-140.30172	0.081879014	-59.425221	0.081765972	-59.422621	0.10731814	-68.244537	
4.11	0.04466516	-139.40676	0.081799886	-60.873835	0.081715172	-60.868535	0.11149237	-68.561542	
4.21	0.04645625	-138.17819	0.081686713	-62.369781	0.081602116	-62.342781	0.11253309	-68.861364	
4.31	0.048139111	-136.02633	0.081550156	-63.765167	0.081446945	-63.778967	0.11247161	-71.635083	
4.41	0.048936954	-134.63835	0.081568247	-65.231181	0.081446256	-65.265581	0.11963634	-73.340824	
4.51	0.049845578	-133.04658	0.081446098	-66.743408	0.081258777	-66.742408	0.12268368	-72.392161	
4.61	0.050753391	-131.43718	0.081378879	-68.145351	0.08121041	-68.104751	0.12315593	-72.568911	
4.71	0.051599504	-129.07125	0.081352276	-69.572209	0.081202558	-69.602009	0.12357174	-74.31502	
4.81	0.051887098	-127.35779	0.081215609	-70.988805	0.081159527	-71.036805	0.13072791	-75.146499	
4.91	0.052391666	-124.83832	0.081072219	-72.484505	0.0809137	-72.499705	0.13229065	-73.391411	
5.01	0.052357166	-122.66119	0.081059022	-73.875951	0.080881903	-73.863351	0.13143261	-73.880784	
5.11	0.052435238	-119.23248	0.0810418	-75.30644	0.080855409	-75.32364	0.13246378	-74.973384	
5.21	0.052023335	-116.86383	0.080910147	-76.756091	0.080835661	-76.750191	0.13838106	-75.417241	
5.31	0.051960472	-113.4308	0.080767478	-78.156121	0.080693123	-78.228521	0.1392188	-73.253557	
5.41	0.051191317	-109.78806	0.080699409	-79.621767	0.080615835	-79.620067	0.13759827	-74.023901	
5.51	0.050752114	-106.04092	0.080675117	-81.045015	0.080554462	-81.109015	0.14019111	-74.635951	
5.61	0.049926792	-101.38493	0.080609903	-82.488851	0.080452288	-82.505551	0.14488969	-74.484873	
5.71	0.048795449	-97.320927	0.080455692	-83.938953	0.080363117	-83.936953	0.14496004	-72.124565	
5.81	0.048065341	-91.655399	0.08033503	-85.354386	0.080233356	-85.378086	0.1425419	-72.728538	
5.91	0.046882697	-86.726197	0.080287581	-86.810012	0.080195199	-86.830512	0.14632404	-72.874672	
6.01	0.046407841	-80.648623	0.080268219	-88.268689	0.080102049	-88.309189	0.14991135	-71.565851	
6.11	0.04592609	-74.338048	0.08006236	-89.730624	0.080016286	-89.740424	0.14887642	-69.105001	
6.21	0.045752421	-66.539098	0.080101279	-91.177226	0.079935455	-91.126326	0.14540927	-69.341087	
6.31	0.045638834	-60.19295	0.080065282	-92.574707	0.079908731	-92.649207	0.14874915	-68.833569	
6.41	0.046520506	-51.838697	0.079944833	-94.068179	0.079770149	-94.089879	0.149796	-66.81837	
6.51	0.047344049	-43.784318	0.079828302	-95.562219	0.07974563	-95.476819	0.14736387	-64.250585	
6.61	0.048706328	-35.555743	0.079899417	-96.980036	0.079715653	-97.043836	0.14229359	-63.995187	
6.71	0.050289642	-28.507099	0.07981823	-98.463661	0.079689682	-98.506161	0.14405928	-63.353912	
6.81	0.052898317	-21.414462	0.079628004	-100.02672	0.079554698	-100.05082	0.14224037	-60.900065	
6.91	0.055826597	-14.496888	0.079715967	-101.50552	0.0795601	-101.55452	0.13819799	-58.935548	
7.01	0.058550234	-8.2250866	0.079599848	-103.06208	0.079499105	-103.10378	0.13193447	-58.380279	
7.11	0.061985284	-2.4540685	0.079555164	-104.58728	0.079417896	-104.59218	0.13250076	-58.268854	
7.21	0.065369558	3.3139536	0.079373848	-106.05435	0.079282519	-106.12295	0.12883591	-55.267178	
7.31	0.069671883	8.6610472	0.079357852	-107.66826	0.079266541	-107.58546	0.12251641	-54.303298	
7.41	0.073281398	13.454479	0.079466509	-109.17312	0.079247238	-109.17252	0.11663125	-54.274015	
7.51	0.077790911	18.02228	0.07935444	-110.73934	0.079254008	-110.74434	0.11571991	-54.438134	
7.61	0.081258622	22.17135	0.0793033	-112.31145	0.079102691	-112.27375	0.11143231	-51.480585	
7.71	0.085409911	26.11892	0.079300362	-113.8642	0.07915442	-113.861	0.10348556	-50.914018	
7.81	0.088558753	30.038331	0.079224743	-115.51554	0.079142696	-115.47014	0.097427566	-51.302735	
7.91	0.092448185	33.422167	0.079259433	-117.08868	0.079113567	-117.08468	0.094446829	-51.621008	
8.01	0.09593829	36.962964	0.079119267	-118.67982	0.07898275	-118.71582	0.088406951	-48.73984	
8.11	0.098812887	40.588319	0.079115786	-120.33602	0.079024753	-120.35042	0.078822329	-49.367283	
8.21	0.10144874	43.833515	0.079109507	-121.95825	0.078945736	-121.97915	0.072146627	-50.952636	
8.31	0.10430291	47.114674	0.079014289	-123.56032	0.078823486	-123.55862	0.067520061	-51.802921	
8.41	0.10661475	50.446221	0.078887876	-125.1963	0.078788034	-125.2053	0.05952473	-49.526741	
8.51	0.10865845	53.794082	0.078997242	-126.87554	0.078761128	-126.86044	0.048314376	-53.564994	
8.61	0.11030493	56.953865	0.078870173	-128.57044	0.078806637	-128.54134	0.042057889	-61.180412	
8.71	0.11202329	60.33682	0.078870186	-130.18505	0.07870691	-130.22455	0.036585959	-67.20233	
8.81	0.11290968	63.883308	0.078841029	-131.86905	0.078686872	-131.81715	0.027993977	-73.9066	
8.91	0.1131232	67.271959	0.078822125	-133.56536	0.078767696	-133.60446	0.023542408	-103.01687	
9.01	0.11324681	70.396102	0.078837778	-135.29736	0.07867457	-135.28346	0.026937221	-122.21835	
9.11	0.11433959	73.742414	0.078728101	-136.92881	0.078592259	-136.94081	0.03182516	-137.034	
9.21	0.11344283	77.593262	0.078713134	-138.6204	0.078586366	-138.6565	0.035666157	-148.92247	
9.31	0.11397902	80.900568	0.078702453	-140.43942	0.078566656	-140.45372	0.047715642	-160.65667	
9.41	0.11368204	85.246823	0.078573674	-142.20518	0.07847423	-142.20368	0.057477317	-159.51953	
9.51	0.11348526	88.764171	0.078243854	-143.87658	0.078063898	-143.80468	0.063230061	-163.59808	
9.61	0.11288127	92.577579	0.078112687	-145.45215	0.077933033	-145.43895	0.073791623	-166.56143	
9.71	0.11115562	96.321566	0.078067525	-147.02969	0.077896943	-147.04559	0.084924576	-167.42191	
9.81	0.1095748	100.08589	0.077829457	-148.6821	0.077793624	-148.7047	0.094075403	-166.36213	
9.91	0.10826327	103.85522	0.077592019	-150.1688	0.077449221	-150.2018	0.10041748	-167.67486	
10.01	0.10676891	107.56331	0.077572214	-151.77832	0.0775008	-151.76432	0.11111106	-168.76008	
10.11	0.10550559	111.84447	0.077432188	-153.36188	0.077307483	-153.40118	0.12197289	-168.51315	
10.21	0.10376955	115.88584	0.077251218	-154.94345	0.077109047	-154.91805	0.13041362	-166.89472	
10.31	0.10207491	120.44589	0.077053115	-156.44528	0.076875898	-156.39518	0.1356984	-167.35725	
10.41	0.10084041	124.18759	0.076901762	-157.8913	0.07671606	-157.9176	0.14663121	-167.46432	
10.51	0.10025581	128.75371	0.076844266	-159.34112	0.076676356	-159.34282	0.15671426	-166.56567	
10.61	0.098956066	133.32053	0.076883781	-160.79426	0.076777635	-160.78906	0.16389256	-165.26189	
10.71	0.097823797	137.75108	0.076805022	-162.37538	0.076584277	-162.35188	0.16926513	-165.55535	
10.81	0.097221121	142.16377	0.076754975	-163.88011	0.076649007	-163.87611	0.17967105	-165.23528	
10.91	0.09642359	146.62022	0.076672987	-165.41659	0.076549504	-165.43019	0.18698949	-163.92379	
11.01	0.096586173	150.82595	0.076586801	-166.96955	0.076481065	-166.92735	0.19180332	-162.95417	
11.11	0.096097127	155.4956	0.076523544	-168.42329	0.076259697	-168.46119	0.19565135	-162.88846	
11.21	0.095927701	159.33287	0.076423428	-169.94156	0.076186236	-169.92476	0.20354672	-162.62457	
11.31	0.096204101	163.15013	0.07627458	-171.45066	0.076151739	-171.45086	0.2083013	-161.5113	
11.41	0.097425283	166.82293	0.076197875	-172.93741	0.076145258	-172.93681	0.21091907	-160.61561	
11.51	0.097730808	170.72458	0.076189102	-174.38464	0.075952637	-174.37124	0.2123971	-160.84701	
11.61	0.098686853	173.80134	0.076071114	-175.99819	0.075939857	-175.96569	0.21910322	-161.04406	
11.71	0.099786795	177.12553	0.075904405	-177.47853	0.075790886	-177.42403	0.22162188	-160.1784	
11.81	0.10117069	-179.97949	0.075877115	-178.92125	0.075720035	-178.94145	0.22334741	-160.33394	
11.91	0.1028441	-177.2424	0.075754362	179.56295	0.075545334	179.53275	0.22528602	-160.61156	
12.01	0.10480341	-174.69981	0.07569705	177.94178	0.07548818	177.96398	0.23044115	-160.92759	
12.11	0.10696019	-172.39227	0.075524808	176.42163	0.075359781	176.42813	0.23229271	-160.35793	
12.21	0.10962522	-170.3582	0.075452542	174.8958	0.07530501	174.8868	0.23331271	-160.96441	
12.31	0.11261293	-168.72428	0.075333012	173.23867	0.075116498	173.21887	0.23678608	-161.45024	
12.41	0.11567482	-167.66942	0.074989467	171.51923	0.074808383	171.47903	0.24246922	-161.91984	
12.51	0.11768437	-166.98066	0.074519776	169.92912	0.074271388	169.88472	0.24421102	-161.35663	
12.61	0.11921494	-165.62558	0.073975942	168.7127	0.073890823	168.7494	0.2452452	-162.33794	
12.71	0.12262723	-163.34342	0.073921286	167.43551	0.073751272	167.46711	0.25077253	-162.79424	
12.81	0.12620685	-161.83616	0.073896	166.00745	0.073819471	166.01205	0.25554256	-163.07992	
12.91	0.13127137	-160.32934	0.073954478	164.49619	0.073903409	164.51049	0.2588257	-162.77108	
13.01	0.13575199	-159.29337	0.073989932	162.9777	0.073879275	163.0331	0.26108294	-163.59199	
13.11	0.1417812	-158.42063	0.073867932	161.39614	0.073757458	161.40584	0.26721168	-164.0138	
13.21	0.14764835	-157.46107	0.073743422	159.78056	0.07354841	159.80926	0.27175867	-164.179	
13.31	0.15310546	-156.6962	0.073541358	158.17751	0.073321552	158.18721	0.27617077	-164.13296	
13.41	0.15950564	-156.1015	0.073188162	156.75271	0.073019834	156.80881	0.27972953	-164.68732	
13.51	0.16645415	-155.17643	0.073078171	155.26922	0.072935282	155.33922	0.2872793	-164.98497	
13.61	0.17370492	-154.60463	0.072946569	153.80512	0.072745289	153.77412	0.29324156	-164.85016	
13.71	0.18237344	-154.02972	0.072666643	152.28967	0.072608104	152.22147	0.29813788	-164.69466	
13.81	0.19074972	-153.1365	0.072495653	150.70994	0.072337245	150.78184	0.30341257	-165.03403	
13.91	0.1991801	-152.5208	0.072273171	149.17801	0.072023979	149.18211	0.31273024	-164.80171	
14.01	0.2087875	-151.9721	0.072036372	147.69126	0.071845874	147.66996	0.31815251	-164.26172	
14.11	0.21827864	-151.05331	0.071669533	146.15679	0.071578827	146.08999	0.3247967	-163.93233	
14.21	0.22720366	-150.27381	0.071444995	144.66418	0.071280676	144.68218	0.3305509	-163.73843	
14.31	0.23752852	-149.60182	0.071163564	143.19542	0.070967203	143.23142	0.34010876	-163.08195	
14.41	0.24775098	-148.71763	0.070847425	141.75928	0.070708898	141.73508	0.3444036	-162.21369	
14.51	0.2582947	-147.83656	0.070569369	140.30204	0.070423278	140.30174	0.35111915	-161.71874	
14.61	0.2687052	-146.93119	0.070287261	138.93434	0.070125605	138.89344	0.35660516	-160.99082	
14.71	0.27923732	-145.91617	0.069876664	137.45041	0.069715952	137.51241	0.3652708	-160.15574	
14.81	0.28928342	-145.11823	0.069635444	136.03993	0.069443299	136.05343	0.36940408	-158.83057	
14.91	0.30022337	-143.98495	0.069266203	134.62087	0.069130768	134.62827	0.37427603	-158.19108	
15.01	0.30926253	-142.95558	0.068893914	133.26297	0.068719637	133.18527	0.37951092	-157.11809	
15.11	0.3184222	-141.95793	0.068467654	131.98853	0.068341648	131.96913	0.38591607	-156.16201	
15.21	0.32737114	-140.9144	0.068023554	130.84035	0.067968755	130.77705	0.38946319	-154.57154	
15.31	0.33651285	-139.80909	0.067879819	129.62852	0.067832945	129.59412	0.39280953	-153.81693	
15.41	0.34452819	-138.80885	0.067709759	128.3505	0.06761628	128.3376	0.39770288	-152.42391	
15.51	0.3520977	-137.75433	0.067495198	127.08454	0.067518514	127.05914	0.40110507	-151.21156	
15.61	0.35742521	-136.52735	0.067387566	125.71798	0.067186152	125.70188	0.40262927	-149.58909	
15.71	0.36176931	-135.26887	0.067042616	124.43402	0.066880722	124.41012	0.40326069	-148.72818	
15.81	0.36836099	-133.84181	0.066714789	123.30017	0.066561349	123.41997	0.40707219	-147.35326	
15.91	0.37444287	-132.61607	0.066649966	122.12776	0.066565613	122.11486	0.40725249	-145.89056	
16.01	0.37769464	-131.39898	0.066552948	120.86525	0.066445764	120.86085	0.40628903	-144.42626	
16.11	0.37908734	-130.01791	0.066428963	119.42767	0.066169442	119.51027	0.40467039	-143.44476	
16.21	0.38179605	-128.25008	0.065913763	118.45311	0.065800032	118.48191	0.4060179	-142.04951	
16.31	0.38698262	-126.58504	0.065648464	117.53685	0.065595579	117.64585	0.40264372	-140.47278	
16.41	0.3911703	-125.11441	0.065873599	116.6086	0.065752367	116.631	0.39872273	-139.31743	
16.51	0.3936631	-123.99793	0.066119499	115.57914	0.066013013	115.60744	0.39293264	-138.28326	
16.61	0.39453646	-123.09011	0.066470047	114.48231	0.066347718	114.52711	0.38980902	-137.34334	
16.71	0.39422368	-122.16517	0.066714435	113.36375	0.066645344	113.32735	0.38403579	-136.02233	
16.81	0.39094486	-121.26157	0.067359828	112.10909	0.067313314	112.14159	0.37630818	-135.02819	
16.91	0.38788156	-120.38338	0.06796158	110.60854	0.067852127	110.64874	0.3680835	-134.25372	
17.01	0.38202933	-119.65823	0.068525419	109.01589	0.068304875	108.99009	0.36080553	-133.55366	
17.11	0.37492061	-119.14359	0.068780366	107.45449	0.068637978	107.48259	0.35049683	-132.64774	
17.21	0.36494648	-118.88137	0.069377654	105.86649	0.069249964	105.84669	0.33900814	-132.06187	
17.31	0.35232098	-118.57978	0.069940361	104.08613	0.069859884	104.12023	0.32616818	-131.83602	
17.41	0.33517112	-118.25767	0.070710659	102.21962	0.070548029	102.20563	0.31445988	-131.71102	
17.51	0.31596717	-117.49313	0.071113606	100.19162	0.071039959	100.15712	0.29816707	-131.71701	
17.61	0.29744897	-115.92792	0.071807976	98.177059	0.071618082	98.225859	0.28286248	-132.38911	
17.71	0.28296182	-114.40747	0.072582071	96.011538	0.07247352	96.030438	0.26653923	-133.28912	
17.81	0.26462517	-114.44232	0.073492866	93.305512	0.073349167	93.373112	0.25119153	-134.37476	
17.91	0.2435617	-113.29923	0.073306538	90.26204	0.073146359	90.33934	0.2304388	-135.61373	
18.01	0.22846321	-110.56997	0.072546084	87.756783	0.072437584	87.782283	0.21180312	-139.23726	
18.11	0.22089414	-110.48202	0.072167464	86.023601	0.071976624	85.991405	0.19376101	-142.19108	
18.21	0.21063259	-113.23141	0.072448397	83.98716	0.072431712	84.092158	0.17473685	-147.95182	
18.31	0.19360576	-117.36788	0.072826305	81.592266	0.072834682	81.744263	0.15645902	-153.79313	
18.41	0.17132075	-123.15097	0.073280969	79.126919	0.073112427	79.160019	0.14179194	-165.17382	
18.51	0.14901883	-129.47016	0.073806128	76.935089	0.073687263	77.013089	0.13878675	-174.20919	
18.61	0.13202749	-138.38905	0.074743203	74.339025	0.074622828	74.321725	0.13339679	173.93578	
18.71	0.12196299	-149.87745	0.075491543	71.272844	0.075387319	71.350944	0.13600852	162.53379	
18.81	0.11384259	-167.93955	0.075852373	67.696713	0.075721492	67.78591	0.14599866	148.75087	
18.91	0.11903846	172.33274	0.075968985	64.262918	0.075733205	64.272221	0.16681852	140.52859	
19.01	0.12887438	155.50248	0.07531102	60.96438	0.075155111	60.975478	0.18386697	132.94862	
19.11	0.1414357	141.92355	0.074623235	57.989393	0.07444304	57.935295	0.2079894	127.68702	
19.21	0.16271202	134.93503	0.074264333	54.922295	0.074247235	54.959895	0.2305295	122.93223	
19.31	0.19003068	131.20343	0.074116477	51.616258	0.073988593	51.617658	0.25882869	119.54551	
19.41	0.22233621	127.80573	0.073486021	48.242571	0.073283252	48.283871	0.28328542	116.92768	
19.51	0.2552115	124.15255	0.072350124	44.821841	0.072300163	44.877941	0.3106619	114.89714	
19.61	0.28934643	121.20498	0.071115749	41.456706	0.071050277	41.480306	0.33585985	113.78008	
19.71	0.31971968	118.65999	0.069635629	38.37745	0.069379557	38.404653	0.35890421	113.02617	
19.81	0.34770743	116.35281	0.067604552	35.901115	0.067565643	35.920617	0.38091292	111.87793	
19.91	0.37000508	115.42395	0.066219234	33.483666	0.066150654	33.566562	0.4055652	111.34151	
20.01	0.3909787	115.47078	0.065058069	31.531515	0.065035603	31.643115	0.42772055	111.29675	
