!
! Hittite Microwave Corporation
! 2 Elizabeth Drive
! Chelmsford, MA 01824
! http://www.hittite.com
! Tel: 978-250-3343
! Fax: 978-250-3373
! 
! Device:      HMC424LP3
! Description: 0.5 dB GaAs MMIC 6-Bit Digital Attenuator
! Frequency:    DC -  13.00 GHz
! Package:     LP3  - 3x3 mm Quad Flatpack No-Lead (QFN) Plastic Package: 16 pin
! Ports:       2 RF, 7 DC
!              Pad  1  = Ground
!              Pad  2  = RF IN   = Port 1
!              Pad  3  = Ground
!              Pad  4  = V6
!              Pad  5  = V5
!              Pad  6  = V4
!              Pad  7  = V3
!              Pad  8  = V2
!              Pad  9  = V1
!              Pad 10  = Ground
!              Pad 11  = RF OUT  = Port 2
!              Pad 12  = Ground
!              Pad 15  = VEE
!
! Control:     -5 Volt control voltage
! State:        46 
! Attenuation:  23.0 dB
! Voltages:    Vdd = -5.00 Volts  Idd =  -2.521 mA
!              V1  = 0.00 Volts  I1  =  30.0 uA
!              V2  = -5.00 Volts  I2  =  -1.0 uA
!              V3  = -5.00 Volts  I3  =  -1.0 uA
!              V4  = -5.00 Volts  I4  =  -1.0 uA
!              V5  = 0.00 Volts  I5  =  29.0 uA
!              V6  = -5.00 Volts  I6  =  -1.0 uA
!
! Data:    The device was measured on evaluation board 105354-1. 
!          Data was collected using a calibrated network analyzer.
!          The evaluation circuit board was modeled and simulated.  This was use
!          to removed the evaluation board circuit from the measured data.
!          The reference plane is the edge of the package pin.
!
! Misc:    Lot xxxx, Unit 1
!          Application 20120001, Data collected in Application 20090083
!
! Date Measured:  2009-09-15
! Date:           2012-05-14  MJV
! Note: 
!   Hittite supplies this data as a sample of measured data at the package pin
!   for this product.  Your particular data for this product may vary.
!   Data was taken at 25 degrees C.
!   Hittite reserves the right to change this data at anytime.
!
# GHz S MA R 50

0.01	0.078791966	173.39672	0.052682385	-2.1206008	0.054027569	-1.6400008	0.043131408	6.6113912	
0.11	0.080627053	178.6314	0.05345685	-2.1699535	0.053352327	-2.2303535	0.040329334	0.41639029	
0.21	0.079798967	178.14154	0.053472881	-3.4993968	0.05330692	-3.6244968	0.039824064	-7.7655542	
0.31	0.077974971	177.27839	0.053315042	-5.0755928	0.05314957	-4.9741928	0.045038645	-9.9534575	
0.41	0.077077075	176.70216	0.053314419	-6.4863449	0.053222428	-6.4737449	0.045719199	-10.735126	
0.51	0.075216441	176.29301	0.053165579	-7.8824371	0.053067735	-7.9848371	0.045038873	-12.897624	
0.61	0.074105375	176.07154	0.05307079	-9.384008	0.053107463	-9.456808	0.046231479	-19.456019	
0.71	0.071438656	175.87402	0.053090585	-10.841427	0.05296848	-10.854227	0.052598671	-20.966644	
0.81	0.06960008	175.24755	0.053032957	-12.282881	0.052947547	-12.234981	0.052520349	-19.823454	
0.91	0.066685309	174.7962	0.052991535	-13.657951	0.052887922	-13.781851	0.053825575	-24.605463	
1.01	0.064558868	173.66022	0.052900709	-15.104345	0.052870266	-15.175645	0.057332296	-27.893632	
1.11	0.062052094	173.29271	0.052887481	-16.521579	0.052759768	-16.626879	0.063816951	-27.25646	
1.21	0.059760013	171.88157	0.052835302	-18.023609	0.05275021	-18.076909	0.062568168	-25.763339	
1.31	0.057275188	171.06097	0.052828215	-19.450218	0.052706714	-19.423318	0.064931175	-30.381506	
1.41	0.054652738	169.24703	0.052753034	-20.776564	0.052668075	-20.825964	0.069555571	-30.811943	
1.51	0.05269157	167.91801	0.052689762	-22.264131	0.052641255	-22.202731	0.073636089	-29.49417	
1.61	0.049868736	166.03887	0.05271991	-23.639591	0.052568388	-23.693891	0.071780301	-28.45104	
1.71	0.048184078	163.97374	0.052692798	-25.147207	0.052505072	-25.162607	0.073575735	-32.733784	
1.81	0.045895333	161.86132	0.05265117	-26.524135	0.052560323	-26.486235	0.077892496	-32.349107	
1.91	0.044813318	158.99999	0.052593589	-28.002668	0.052557272	-28.014468	0.079142084	-31.73075	
2.01	0.043430893	156.6526	0.052525473	-29.433345	0.052434843	-29.328745	0.076953173	-31.895802	
2.11	0.042674972	154.052	0.052533596	-30.80608	0.052485233	-30.74358	0.078802793	-36.377023	
2.21	0.041675699	152.18581	0.052435903	-32.062896	0.052393662	-32.126096	0.083368058	-35.833784	
2.31	0.04100196	149.76698	0.05248079	-33.610974	0.052281779	-33.607774	0.08256625	-35.686994	
2.41	0.040463079	148.25744	0.052327413	-34.935787	0.052297299	-34.949487	0.080792881	-37.478575	
2.51	0.040152486	146.27207	0.052382569	-36.475584	0.052292185	-36.403984	0.083450879	-41.62351	
2.61	0.040218198	144.78002	0.052350121	-37.766431	0.052175628	-37.920531	0.087450022	-40.904241	
2.71	0.039679449	143.83582	0.052243696	-39.194154	0.052183583	-39.284454	0.085195586	-41.568801	
2.81	0.040292838	142.63324	0.052209681	-40.580729	0.052209681	-40.625429	0.08455695	-44.404881	
2.91	0.039616425	142.41132	0.052262464	-41.991588	0.052070276	-42.025688	0.087695355	-47.790727	
3.01	0.039874415	142.34368	0.0521631	-43.482017	0.052055113	-43.526517	0.091175862	-47.045832	
3.11	0.039690393	142.63783	0.052015275	-44.785281	0.051889669	-44.730881	0.087607162	-48.246056	
3.21	0.039928838	142.28193	0.051949672	-46.260745	0.051919776	-46.218845	0.088234152	-51.92865	
3.31	0.039834308	143.38863	0.052041907	-47.663029	0.0518565	-47.663329	0.091518345	-54.380479	
3.41	0.039817978	144.37307	0.051875585	-49.080235	0.051875585	-49.205635	0.093734838	-54.066161	
3.51	0.039653254	145.90173	0.051810509	-50.427595	0.051786655	-50.585095	0.090102777	-56.438765	
3.61	0.039849193	147.56791	0.051861322	-51.855922	0.051765878	-51.922722	0.092544291	-60.78127	
3.71	0.039167057	149.8271	0.051758815	-53.312738	0.05166356	-53.254138	0.096553818	-62.50821	
3.81	0.038697329	151.91019	0.051657442	-54.786827	0.051645549	-54.757227	0.097533431	-62.719715	
3.91	0.038246287	154.32462	0.051638573	-56.168389	0.051555408	-56.106689	0.09508434	-66.308091	
4.01	0.031967441	162.4208	0.051590477	-57.469995	0.051578599	-57.518395	0.10755702	-68.164433	
4.11	0.030872942	165.00127	0.051595063	-58.89484	0.051517899	-58.94284	0.1117588	-68.448237	
4.21	0.029763135	168.50382	0.051566506	-60.284208	0.051507172	-60.271508	0.11271215	-68.856282	
4.31	0.027883948	173.34648	0.051569917	-61.720254	0.051439464	-61.799254	0.11267422	-71.564075	
4.41	0.025950144	176.53453	0.05147501	-63.094626	0.051315249	-63.167226	0.11986546	-73.273013	
4.51	0.024129589	-179.10472	0.051475209	-64.586652	0.051268206	-64.613352	0.122899	-72.362836	
4.61	0.022532021	-173.71401	0.051331845	-65.98224	0.051284588	-65.98354	0.12349727	-72.549445	
4.71	0.020382192	-166.21345	0.051296551	-67.331721	0.051184464	-67.344921	0.12392688	-74.289855	
4.81	0.018562634	-159.24533	0.051238666	-68.731232	0.051173817	-68.866832	0.13095127	-75.103508	
4.91	0.017002992	-148.36923	0.051152114	-70.232432	0.051052097	-70.144632	0.13254283	-73.374835	
5.01	0.015683682	-137.42011	0.051141062	-71.601883	0.050999949	-71.613083	0.1317021	-73.851974	
5.11	0.01499641	-120.19645	0.051067451	-72.992442	0.051008691	-72.994142	0.13282134	-74.939795	
5.21	0.014852249	-106.22066	0.051021231	-74.404911	0.051015358	-74.366811	0.13872225	-75.41663	
5.31	0.016362194	-90.177517	0.050896359	-75.882942	0.050867069	-75.855642	0.13955149	-73.265997	
5.41	0.018171795	-75.748015	0.050864764	-77.209708	0.050823789	-77.263508	0.1379795	-74.076854	
5.51	0.021151741	-64.802136	0.050864989	-78.668626	0.050753846	-78.673026	0.14056964	-74.653457	
5.61	0.02477328	-54.712644	0.050716126	-80.088137	0.050681105	-80.100837	0.14524868	-74.53185	
5.71	0.028020898	-47.066822	0.050691373	-81.536298	0.050545681	-81.496698	0.14529907	-72.19287	
5.81	0.032799723	-40.216016	0.050645698	-82.909701	0.050476886	-82.916301	0.14280436	-72.829388	
5.91	0.036682697	-34.904013	0.05049314	-84.358982	0.050452464	-84.361882	0.14673245	-72.933405	
6.01	0.041705109	-30.396469	0.050405052	-85.743455	0.050387645	-85.758155	0.15013972	-71.650507	
6.11	0.046526726	-26.340261	0.050349952	-87.138259	0.05023415	-87.148359	0.14908657	-69.214121	
6.21	0.052308473	-21.927101	0.050250196	-88.514732	0.050209715	-88.537132	0.14561759	-69.467297	
6.31	0.056999653	-18.705045	0.050235585	-89.972654	0.050120047	-89.972054	0.14896462	-68.937575	
6.41	0.063024855	-15.261827	0.050145739	-91.414718	0.050041928	-91.352218	0.14983187	-66.934927	
6.51	0.068413198	-11.797103	0.050109515	-92.799828	0.050011536	-92.745628	0.14747898	-64.397166	
6.61	0.073896978	-8.4046033	0.050040719	-94.245737	0.049919881	-94.300237	0.14241075	-64.126607	
6.71	0.078813861	-5.6661294	0.050043574	-95.646686	0.049905489	-95.688586	0.14400262	-63.462331	
6.81	0.084231463	-3.0906411	0.04993274	-97.149479	0.049869545	-97.161379	0.14208561	-61.035353	
6.91	0.089423932	-0.3490604	0.04987587	-98.630403	0.049772618	-98.689903	0.13810143	-59.086993	
7.01	0.093909491	2.2143529	0.049777662	-100.17191	0.049708939	-100.13421	0.13175782	-58.493972	
7.11	0.098736407	4.6138844	0.04970743	-101.57647	0.04961595	-101.53827	0.13238568	-58.412247	
7.21	0.10290603	7.2385883	0.049536935	-102.97997	0.049519828	-103.12027	0.12856641	-55.365787	
7.31	0.10758035	9.7541102	0.049556574	-104.43402	0.049453983	-104.50252	0.12223865	-54.422038	
7.41	0.11126441	12.088309	0.049562881	-105.93076	0.049494454	-105.89366	0.11642107	-54.385769	
7.51	0.11531097	14.469353	0.049553698	-107.44223	0.049490982	-107.36563	0.11537276	-54.462184	
7.61	0.11819961	16.666497	0.049554975	-108.97756	0.049446694	-108.94616	0.1111124	-51.505702	
7.71	0.1213943	18.890265	0.04951966	-110.48384	0.049394393	-110.44434	0.10323521	-50.910357	
7.81	0.1232077	21.12604	0.049464268	-112.09074	0.049413041	-111.99744	0.09718366	-51.255221	
7.91	0.12558966	23.214556	0.049474499	-113.558	0.049343665	-113.5143	0.094261305	-51.565945	
8.01	0.12730316	25.504623	0.049372683	-115.06519	0.049304519	-115.11889	0.088111544	-48.710843	
8.11	0.12801212	27.835912	0.049357207	-116.67065	0.049255028	-116.66515	0.078556366	-49.240921	
8.21	0.12837096	30.031322	0.049336833	-118.24453	0.049246035	-118.29653	0.071972861	-50.745359	
8.31	0.12870524	32.362787	0.04932649	-119.76269	0.049184721	-119.73609	0.067247973	-51.575126	
8.41	0.12831583	34.760315	0.049201453	-121.32558	0.049195789	-121.32628	0.05941242	-49.251657	
8.51	0.12732612	37.198274	0.049312551	-122.91999	0.049227465	-122.99189	0.048257892	-53.340177	
8.61	0.1258495	39.577112	0.049316146	-124.50705	0.049180068	-124.55775	0.041903539	-60.717382	
8.71	0.12404616	42.311908	0.0493242	-126.15441	0.049182438	-126.16671	0.036565111	-66.732018	
8.81	0.12140598	45.196358	0.049250794	-127.78742	0.049188461	-127.72122	0.027892476	-73.229656	
8.91	0.11788481	47.957768	0.04938101	-129.45844	0.04929013	-129.49324	0.023360624	-102.41176	
9.01	0.11429195	50.593669	0.049301433	-131.21089	0.049267388	-131.11259	0.026700274	-121.53917	
9.11	0.11143211	53.789652	0.049355127	-132.73824	0.049264295	-132.77144	0.031559537	-136.7374	
9.21	0.10633483	57.309251	0.049355585	-134.47609	0.049230733	-134.47119	0.035417676	-148.61155	
9.31	0.10296326	60.783217	0.049335526	-136.26599	0.049210725	-136.19589	0.047356617	-160.49046	
9.41	0.098046392	65.507393	0.04923876	-138.01839	0.049136827	-138.02429	0.057094333	-159.15501	
9.51	0.093958848	69.596466	0.048986941	-139.62232	0.04880118	-139.67442	0.062945976	-163.42733	
9.61	0.089515594	74.195224	0.048830343	-141.20438	0.048712428	-141.18438	0.073374138	-166.3718	
9.71	0.084128089	78.942303	0.048810228	-142.82417	0.048720399	-142.74497	0.084671204	-167.18722	
9.81	0.079147689	84.185786	0.048670128	-144.35176	0.048524659	-144.40236	0.093569919	-166.28535	
9.91	0.074851842	89.835348	0.048490111	-145.6906	0.048350746	-145.6963	0.10016336	-167.4818	
10.01	0.070790232	95.970977	0.048517043	-147.33375	0.048422178	-147.33675	0.11085414	-168.53468	
10.11	0.067252087	103.38976	0.048367124	-149.04655	0.048244773	-148.92105	0.121875	-168.30355	
10.21	0.064064836	111.05587	0.048206832	-150.40122	0.048073815	-150.40512	0.13027852	-166.7101	
10.31	0.061630809	119.99586	0.048063821	-151.79183	0.047991938	-151.82573	0.13572282	-167.18091	
10.41	0.060634912	127.72257	0.047933518	-153.209	0.047872852	-153.2813	0.14649461	-167.35103	
10.51	0.061196152	136.88375	0.048002953	-154.57489	0.047887036	-154.51629	0.15674126	-166.40733	
10.61	0.062015789	145.71296	0.047994001	-156.04717	0.047916706	-155.97987	0.16377215	-165.14009	
10.71	0.0637438	154.0126	0.047978784	-157.52024	0.047868436	-157.43904	0.16927896	-165.44256	
10.81	0.066668876	161.45422	0.047921477	-159.01763	0.04791596	-158.97623	0.17967411	-165.16887	
10.91	0.06997791	168.4453	0.047965571	-160.48532	0.04780019	-160.56192	0.18705245	-163.84804	
11.01	0.074405327	174.23606	0.047921138	-162.00553	0.047783408	-161.96173	0.19185647	-162.89838	
11.11	0.078663618	-179.87083	0.047762983	-163.45532	0.047735497	-163.45962	0.19583153	-162.8013	
11.21	0.082942374	-175.51153	0.047683155	-164.9902	0.047661202	-165.0002	0.20369425	-162.52056	
11.31	0.087545102	-171.59594	0.047746696	-166.40964	0.047631398	-166.34774	0.20861667	-161.41535	
11.41	0.092776297	-168.39461	0.047674334	-167.87678	0.047548261	-167.99278	0.21116905	-160.57746	
11.51	0.097622239	-165.01976	0.047624967	-169.36942	0.047504493	-169.37942	0.21251153	-160.87174	
11.61	0.102104	-162.71304	0.047451575	-170.8977	0.04734244	-170.8684	0.2194829	-160.94248	
11.71	0.10724855	-160.29499	0.047392226	-172.36345	0.0473595	-172.37145	0.22184903	-160.16854	
11.81	0.11168864	-158.4264	0.047407841	-173.70034	0.047293361	-173.80264	0.22354206	-160.34623	
11.91	0.11663788	-156.9006	0.047264589	-175.33845	0.047161313	-175.28435	0.22553926	-160.57826	
12.01	0.12143624	-155.57954	0.047191566	-176.90447	0.047099293	-176.83917	0.23079736	-160.89905	
12.11	0.12622857	-154.45915	0.047084145	-178.44695	0.046889401	-178.45265	0.23268395	-160.31505	
12.21	0.13117556	-153.70007	0.046968276	-179.86577	0.046925036	-179.94567	0.23369116	-160.98197	
12.31	0.13611071	-153.21037	0.046884885	178.42147	0.046825546	178.48237	0.23711161	-161.44303	
12.41	0.14063923	-153.25054	0.046571372	176.59076	0.046512431	176.63916	0.24271025	-161.94013	
12.51	0.14389292	-153.30502	0.046071664	175.14312	0.046018653	175.11782	0.24452132	-161.36394	
12.61	0.14716292	-152.80597	0.045709894	174.19771	0.045631024	174.07751	0.24561067	-162.37926	
12.71	0.15260957	-151.76246	0.045603327	173.07309	0.045613829	173.11469	0.25104338	-162.81727	
12.81	0.15773921	-151.27075	0.045707852	171.7458	0.045655259	171.8572	0.25574893	-163.12406	
12.91	0.16424303	-150.93775	0.04578867	170.37776	0.04572019	170.41146	0.25902576	-162.79916	
13.01	0.16988422	-150.84162	0.045764949	168.9289	0.045696504	168.9798	0.26133369	-163.62846	
13.11	0.17698399	-150.95121	0.045668684	167.41625	0.045610884	167.45505	0.26746866	-164.05888	
13.21	0.18355765	-150.90292	0.045619815	165.7688	0.045535858	165.8789	0.27192067	-164.23727	
13.31	0.18984572	-150.99899	0.045431446	164.25277	0.045368724	164.28247	0.27636522	-164.20389	
13.41	0.1969168	-151.12111	0.045236193	162.91268	0.045100987	162.97178	0.27983771	-164.78665	
13.51	0.20462158	-151.03337	0.045096527	161.58556	0.045008351	161.61596	0.28743371	-165.06151	
13.61	0.21214649	-151.15034	0.0450405	160.15703	0.04487487	160.14003	0.29330741	-164.92408	
13.71	0.22123358	-151.21552	0.044882213	158.66678	0.044866714	158.63578	0.29828149	-164.76492	
13.81	0.22990981	-150.99094	0.044808902	157.27516	0.04471614	157.26916	0.30345735	-165.12511	
13.91	0.23849657	-150.9789	0.044643736	155.866	0.044582101	155.8189	0.31267379	-164.89638	
14.01	0.24816821	-150.93192	0.044473874	154.39184	0.044402248	154.38184	0.31793282	-164.34087	
14.11	0.25761703	-150.551	0.04432183	152.98381	0.044270832	152.87651	0.32461561	-163.99688	
14.21	0.26638736	-150.24546	0.044142705	151.53397	0.044005701	151.59677	0.3304519	-163.81643	
14.31	0.27646268	-149.97971	0.043943725	150.15565	0.043842657	150.21025	0.33988436	-163.16289	
14.41	0.28624716	-149.50474	0.04380254	148.74709	0.043711861	148.78669	0.34410978	-162.28829	
14.51	0.29637404	-149.00784	0.043581345	147.41441	0.043451085	147.49331	0.35083011	-161.81141	
14.61	0.30608915	-148.43057	0.043443759	146.15304	0.043343841	146.10954	0.3562028	-161.05787	
14.71	0.31584236	-147.72216	0.043229755	144.81598	0.043125364	144.79478	0.36478572	-160.21735	
14.81	0.32531693	-147.20568	0.043048731	143.40596	0.042900302	143.45236	0.36868715	-158.87386	
14.91	0.33505543	-146.3359	0.042866815	142.15906	0.042758377	142.17496	0.37378946	-158.22373	
15.01	0.34322966	-145.56273	0.042606558	140.8466	0.042552634	140.8246	0.37903843	-157.14707	
15.11	0.35125311	-144.74825	0.042285083	139.72752	0.042231566	139.72412	0.38527484	-156.187	
15.21	0.35892985	-143.87094	0.04214942	138.70146	0.042091229	138.69406	0.3887635	-154.5824	
15.31	0.36689313	-142.97007	0.042099742	137.64868	0.0420513	137.78118	0.39209982	-153.81865	
15.41	0.37354172	-142.11388	0.042133961	136.45733	0.042046736	136.47903	0.39705467	-152.43112	
15.51	0.37971806	-141.17205	0.042107416	135.25457	0.042010572	135.25677	0.40037147	-151.19945	
15.61	0.38367331	-140.06224	0.041972907	133.82603	0.041914959	133.80613	0.40193981	-149.56441	
15.71	0.38683847	-138.94259	0.04178407	132.51459	0.041692769	132.58059	0.40243682	-148.69084	
15.81	0.39178815	-137.60283	0.041615504	131.72175	0.041524572	131.75755	0.40642183	-147.29552	
15.91	0.39651265	-136.51416	0.041632692	130.57018	0.041546505	130.64568	0.40667041	-145.80265	
16.01	0.39826995	-135.39025	0.041654992	129.27944	0.041559188	129.30234	0.40569698	-144.35206	
16.11	0.39827571	-134.12257	0.041493885	127.87601	0.041455685	128.01271	0.40406181	-143.34348	
16.21	0.39928198	-132.48523	0.041111474	126.96299	0.041078356	127.01349	0.4056054	-141.95926	
16.31	0.40309875	-130.87143	0.041008616	126.39749	0.04091901	126.46059	0.40225009	-140.37208	
16.41	0.40547691	-129.54336	0.041168514	125.70424	0.041017122	125.73804	0.39842376	-139.21044	
16.51	0.40623392	-128.51697	0.041408701	124.94724	0.041361055	124.86044	0.39282627	-138.16238	
16.61	0.40562531	-127.72493	0.041690928	123.91186	0.041714935	123.91206	0.38965246	-137.20385	
16.71	0.40360029	-126.87701	0.042124	122.91025	0.042046476	122.81745	0.38395417	-135.85103	
16.81	0.39842628	-126.09074	0.042622616	121.86466	0.04263734	121.69506	0.37646321	-134.88755	
16.91	0.39381782	-125.30258	0.043196877	120.24724	0.043196877	120.13614	0.3682947	-134.10941	
17.01	0.38634105	-124.70038	0.043630204	118.61981	0.043534869	118.56141	0.36106453	-133.36783	
17.11	0.37760259	-124.30741	0.0438797	117.08432	0.043758623	117.09432	0.35087321	-132.49787	
17.21	0.36589553	-124.20525	0.044347195	115.6353	0.044229921	115.57889	0.33936631	-131.90749	
17.31	0.3517695	-124.07915	0.044970615	114.0074	0.044810404	113.9473	0.32675419	-131.71038	
17.41	0.33318907	-123.96158	0.045599133	112.12703	0.045504733	112.16413	0.31519214	-131.54068	
17.51	0.31256622	-123.50822	0.046169928	109.94226	0.045984265	109.98226	0.29895292	-131.58098	
17.61	0.29243773	-122.24159	0.046593461	107.74231	0.046625657	107.75111	0.28389646	-132.27649	
17.71	0.27631415	-121.14707	0.047406135	105.42994	0.047144882	105.44284	0.26732531	-133.15366	
17.81	0.25634195	-121.65073	0.048009307	102.38464	0.047854793	102.37904	0.25214924	-134.28417	
17.91	0.23397144	-121.00851	0.047672776	98.850704	0.047530288	98.904704	0.23083099	-135.50156	
18.01	0.21626013	-118.79676	0.046717437	96.157833	0.04662609	96.26413	0.21251729	-139.09551	
18.11	0.20688348	-119.1432	0.046117376	94.681883	0.04610676	94.714281	0.19473982	-142.0362	
18.21	0.19614837	-122.65012	0.046214481	93.128458	0.046113503	93.196649	0.17551226	-147.84789	
18.31	0.17922243	-127.82719	0.046454881	91.202055	0.046337367	91.347049	0.15743839	-153.63675	
18.41	0.15851355	-135.2977	0.046790588	89.164587	0.046704476	89.326687	0.1425635	-164.98677	
18.51	0.13836818	-143.73622	0.047427981	87.295322	0.047329796	87.361022	0.13938802	-174.09258	
18.61	0.12546237	-154.81565	0.048340066	84.698678	0.04817894	84.685178	0.13410137	174.23274	
18.71	0.12078575	-167.85266	0.048882528	81.652658	0.048854397	81.723358	0.13654027	162.80901	
18.81	0.12135458	173.89094	0.049102029	78.181013	0.049051177	78.157716	0.1463871	148.95729	
18.91	0.13448914	156.90758	0.049257094	74.826283	0.049228748	74.813286	0.16674744	140.75157	
19.01	0.15043127	143.35494	0.049010305	71.572088	0.049061107	71.665484	0.18420618	133.07273	
19.11	0.16667052	132.44268	0.048864492	68.417171	0.048690412	68.566468	0.20797668	127.67874	
19.21	0.18912246	127.15064	0.048748894	65.520301	0.04872084	65.470501	0.23055342	123.00081	
19.31	0.21575135	124.37026	0.048642662	62.2104	0.048508443	62.0677	0.25913952	119.57659	
19.41	0.24754484	121.72923	0.048171286	58.66217	0.048149107	58.85197	0.28338964	116.98467	
19.51	0.27972045	118.87785	0.047451073	55.414103	0.047385563	55.401203	0.31084309	114.9134	
19.61	0.3117347	116.44459	0.046617543	52.117075	0.046478211	52.153978	0.33569794	113.79712	
19.71	0.34085179	114.35948	0.045511863	49.300586	0.045422875	49.217986	0.35855284	113.05203	
19.81	0.36722573	112.46462	0.044361283	47.185814	0.044305134	47.141416	0.3806903	111.88931	
19.91	0.3884231	111.81026	0.043684973	44.745233	0.043639734	44.822627	0.40545894	111.39026	
20.01	0.40828989	111.95379	0.042889771	42.74909	0.043057988	42.81049	0.42767072	111.29281	
