!
! Hittite Microwave Corporation
! 2 Elizabeth Drive
! Chelmsford, MA 01824
! http://www.hittite.com
! Tel: 978-250-3343
! Fax: 978-250-3373
! 
! Device:      HMC424LP3
! Description: 0.5 dB GaAs MMIC 6-Bit Digital Attenuator
! Frequency:    DC -  13.00 GHz
! Package:     LP3  - 3x3 mm Quad Flatpack No-Lead (QFN) Plastic Package: 16 pin
! Ports:       2 RF, 7 DC
!              Pad  1  = Ground
!              Pad  2  = RF IN   = Port 1
!              Pad  3  = Ground
!              Pad  4  = V6
!              Pad  5  = V5
!              Pad  6  = V4
!              Pad  7  = V3
!              Pad  8  = V2
!              Pad  9  = V1
!              Pad 10  = Ground
!              Pad 11  = RF OUT  = Port 2
!              Pad 12  = Ground
!              Pad 15  = VEE
!
! Control:     -5 Volt control voltage
! State:        42 
! Attenuation:  21.0 dB
! Voltages:    Vdd = -5.00 Volts  Idd =  -2.396 mA
!              V1  = 0.00 Volts  I1  =  29.0 uA
!              V2  = -5.00 Volts  I2  =  -1.0 uA
!              V3  = 0.00 Volts  I3  =  29.0 uA
!              V4  = -5.00 Volts  I4  =  -1.0 uA
!              V5  = 0.00 Volts  I5  =  29.0 uA
!              V6  = -5.00 Volts  I6  =  -1.0 uA
!
! Data:    The device was measured on evaluation board 105354-1. 
!          Data was collected using a calibrated network analyzer.
!          The evaluation circuit board was modeled and simulated.  This was use
!          to removed the evaluation board circuit from the measured data.
!          The reference plane is the edge of the package pin.
!
! Misc:    Lot xxxx, Unit 1
!          Application 20120001, Data collected in Application 20090083
!
! Date Measured:  2009-09-15
! Date:           2012-05-14  MJV
! Note: 
!   Hittite supplies this data as a sample of measured data at the package pin
!   for this product.  Your particular data for this product may vary.
!   Data was taken at 25 degrees C.
!   Hittite reserves the right to change this data at anytime.
!
# GHz S MA R 50

0.01	0.017648583	20.351416	0.067268661	-0.80452304	0.067516945	-1.988723	0.044671401	6.4514871	
0.11	0.014059389	-8.1651618	0.066575369	-2.1230477	0.066399312	-2.1745477	0.041135486	0.42902011	
0.21	0.015072352	-15.861697	0.066325402	-3.4857878	0.066264343	-3.5877878	0.040238221	-7.7633433	
0.31	0.016943972	-20.424035	0.066378756	-5.1161247	0.066180357	-5.1268247	0.045559034	-10.018774	
0.41	0.018203551	-26.355789	0.066206885	-6.5922079	0.06630605	-6.5611079	0.046254797	-10.710339	
0.51	0.020508096	-30.311935	0.066109605	-8.0177184	0.066079167	-8.1173184	0.045431596	-12.967807	
0.61	0.022425267	-35.332461	0.066093822	-9.5538132	0.066002573	-9.5628132	0.046878712	-19.342368	
0.71	0.025543373	-37.637164	0.066014961	-10.993806	0.065946594	-11.012106	0.053159804	-20.960914	
0.81	0.027800246	-39.569827	0.065938255	-12.44121	0.065824482	-12.48301	0.053105605	-19.784068	
0.91	0.030993591	-40.493963	0.065949837	-13.934136	0.065790582	-13.927436	0.054381892	-24.616131	
1.01	0.033028096	-40.759332	0.06583153	-15.377073	0.06580122	-15.440773	0.057836796	-27.857517	
1.11	0.035804823	-42.220731	0.065809752	-16.844477	0.065643277	-16.913677	0.064354335	-27.332384	
1.21	0.037861334	-42.385469	0.065754676	-18.22848	0.065626107	-18.23858	0.063084795	-25.688299	
1.31	0.040328105	-43.020006	0.065665074	-19.736418	0.065597069	-19.784118	0.065491421	-30.370543	
1.41	0.042325568	-42.670078	0.065619809	-21.124857	0.065506585	-21.138357	0.07011696	-30.800175	
1.51	0.044200907	-43.281355	0.065536739	-22.567353	0.065499024	-22.579753	0.074221127	-29.478981	
1.61	0.046408351	-43.134649	0.065464921	-23.965678	0.065344441	-24.059778	0.072280313	-28.473871	
1.71	0.047807201	-43.346542	0.065435385	-25.451644	0.065330001	-25.483144	0.074092584	-32.721731	
1.81	0.049434137	-43.534655	0.065403742	-26.839414	0.065298408	-26.788014	0.078425327	-32.345669	
1.91	0.050031596	-43.741922	0.065337401	-28.296607	0.065217156	-28.275507	0.079598035	-31.785221	
2.01	0.051064025	-44.201307	0.065265985	-29.734597	0.065228426	-29.740797	0.077421679	-31.975608	
2.11	0.051594424	-44.869614	0.065154539	-31.136254	0.065094558	-31.158454	0.079351936	-36.386993	
2.21	0.052289589	-46.054083	0.06519771	-32.589893	0.065002841	-32.590293	0.083890472	-35.933317	
2.31	0.052884557	-46.934541	0.06514798	-33.929765	0.064945783	-33.983165	0.083078415	-35.750333	
2.41	0.053178117	-48.515368	0.065010237	-35.370656	0.064942911	-35.378556	0.081281277	-37.603277	
2.51	0.053421432	-49.923139	0.064981796	-36.881046	0.064892082	-36.810546	0.083881791	-41.633718	
2.61	0.053393464	-51.768923	0.065009278	-38.221168	0.06479259	-38.305168	0.087921997	-40.966645	
2.71	0.053910083	-53.828835	0.064900199	-39.729697	0.064810598	-39.744497	0.085674725	-41.687549	
2.81	0.053435587	-55.979749	0.06479866	-41.061148	0.064739006	-41.140848	0.085054794	-44.460791	
2.91	0.054330811	-58.520024	0.064693088	-42.497745	0.064715436	-42.533245	0.088232501	-47.822883	
3.01	0.054403687	-61.202218	0.064681937	-43.909353	0.064600075	-43.929553	0.091592898	-47.133323	
3.11	0.055199288	-64.094609	0.064646906	-45.379571	0.064572522	-45.353171	0.088179898	-48.297728	
3.21	0.055441437	-66.796718	0.064564765	-46.808205	0.064579633	-46.807505	0.088766103	-51.988374	
3.31	0.056264272	-70.037736	0.064492349	-48.263555	0.064418142	-48.181655	0.091975381	-54.432746	
3.41	0.057247685	-73.313843	0.064499357	-49.647553	0.064402895	-49.702153	0.094203111	-54.096236	
3.51	0.058714123	-76.414153	0.064348887	-51.046153	0.064341479	-51.045953	0.090681957	-56.446019	
3.61	0.060278518	-79.802102	0.064312325	-52.446872	0.064253119	-52.420672	0.092997852	-60.799732	
3.71	0.062565812	-82.64244	0.064255174	-53.903472	0.064114772	-53.851372	0.097015229	-62.546121	
3.81	0.064869064	-85.149122	0.064168529	-55.345977	0.064102075	-55.370077	0.098064312	-62.770849	
3.91	0.06731801	-87.828953	0.064028967	-56.659413	0.063999488	-56.787113	0.095598207	-66.311054	
4.01	0.075394704	-86.855853	0.064125076	-58.131044	0.063962862	-58.170544	0.10800839	-68.22926	
4.11	0.077874812	-88.329434	0.063932061	-59.543061	0.063851147	-59.538661	0.11216996	-68.466816	
4.21	0.080683002	-89.652566	0.063903622	-60.962183	0.063844792	-60.904683	0.1132091	-68.83844	
4.31	0.084009093	-90.377675	0.063797239	-62.305759	0.06368716	-62.411259	0.1131559	-71.583011	
4.41	0.08643842	-90.896415	0.06373798	-63.731908	0.063642656	-63.856008	0.12023673	-73.330505	
4.51	0.088980307	-91.336986	0.063649176	-65.187021	0.06357594	-65.233721	0.12336354	-72.37609	
4.61	0.091520031	-91.786584	0.0636325	-66.625443	0.063486149	-66.619143	0.12388367	-72.575279	
4.71	0.094426809	-91.719406	0.063434677	-68.022685	0.063405471	-68.037985	0.12436139	-74.320096	
4.81	0.096560203	-91.776393	0.063399882	-69.416839	0.063334223	-69.417739	0.13139344	-75.149268	
4.91	0.099116835	-91.54135	0.063264955	-70.881105	0.063199436	-70.837005	0.13294115	-73.401807	
5.01	0.10096292	-91.304452	0.063188113	-72.178023	0.063122674	-72.184323	0.13215082	-73.871868	
5.11	0.10341245	-90.504172	0.06310127	-73.533946	0.063115802	-73.594346	0.13322852	-74.972616	
5.21	0.10472961	-90.001543	0.063115167	-74.96968	0.063049803	-75.01578	0.13904684	-75.440854	
5.31	0.10689059	-89.215377	0.062931954	-76.394595	0.062881257	-76.458595	0.13993028	-73.323128	
5.41	0.10802798	-88.216952	0.06297478	-77.831112	0.062815477	-77.770612	0.13840917	-74.093144	
5.51	0.10949656	-87.155078	0.062798943	-79.15782	0.062733907	-79.18232	0.1409448	-74.728263	
5.61	0.1104122	-85.740892	0.062709303	-80.549952	0.062593894	-80.604152	0.14554343	-74.57358	
5.71	0.11071562	-84.617748	0.062659886	-81.961657	0.062486989	-81.984257	0.14565501	-72.258041	
5.81	0.11138539	-82.877143	0.062623599	-83.341217	0.062479568	-83.373717	0.14317683	-72.857907	
5.91	0.11106179	-81.558593	0.06249525	-84.671269	0.062401784	-84.664169	0.1470713	-73.013967	
6.01	0.11119502	-79.783487	0.06248412	-86.106002	0.062369126	-86.097102	0.1505557	-71.690057	
6.11	0.11078956	-78.069969	0.062259363	-87.506542	0.062245029	-87.496542	0.14952355	-69.278587	
6.21	0.11006358	-75.684798	0.062348762	-88.871344	0.062183883	-88.902544	0.14597771	-69.535766	
6.31	0.10888861	-73.942239	0.062231792	-90.297216	0.062224628	-90.296616	0.14933125	-69.035832	
6.41	0.10777442	-71.263618	0.062231242	-91.662976	0.062102412	-91.635576	0.15022529	-67.043393	
6.51	0.10571312	-68.806188	0.062122395	-93.149892	0.062072351	-93.100092	0.14782949	-64.479174	
6.61	0.10345028	-66.068608	0.062104146	-94.453529	0.062054117	-94.555529	0.14276937	-64.219179	
6.71	0.10100433	-63.6176	0.062120714	-95.981108	0.062049236	-95.971608	0.14437204	-63.558804	
6.81	0.098700642	-60.776138	0.062069585	-97.426103	0.061991028	-97.425603	0.14245082	-61.126151	
6.91	0.095654683	-57.666702	0.062066454	-98.893461	0.061937966	-98.894761	0.13848238	-59.196235	
7.01	0.092380171	-54.823653	0.062035882	-100.37287	0.061928842	-100.41307	0.13208167	-58.642869	
7.11	0.089170852	-51.545953	0.061990473	-101.81365	0.061869264	-101.78635	0.1326811	-58.505697	
7.21	0.085226164	-48.018873	0.061855861	-103.27461	0.061784688	-103.25001	0.12889153	-55.491894	
7.31	0.081587583	-44.054504	0.06191958	-104.72944	0.061805625	-104.81314	0.12246309	-54.630624	
7.41	0.077484279	-40.285089	0.062036538	-106.30773	0.061858239	-106.25493	0.11674833	-54.593599	
7.51	0.07369715	-35.660043	0.061954941	-107.7366	0.061905032	-107.7276	0.11557584	-54.655758	
7.61	0.069464056	-31.438376	0.062021548	-109.30616	0.061857534	-109.28816	0.11139771	-51.715508	
7.71	0.065542863	-26.281267	0.062070556	-110.92031	0.061942059	-110.83761	0.10342142	-51.162757	
7.81	0.060970583	-21.255101	0.062005276	-112.49789	0.061898289	-112.45439	0.097440899	-51.507469	
7.91	0.057225763	-15.229439	0.062029267	-114.06883	0.061886604	-114.00093	0.09442583	-51.845751	
8.01	0.053396693	-8.4666507	0.061972074	-115.60309	0.061907894	-115.65539	0.088336636	-49.000424	
8.11	0.049253639	-1.08759	0.061985628	-117.30192	0.0618858	-117.27472	0.078740799	-49.593172	
8.21	0.045704456	7.1737259	0.061897173	-118.94167	0.061797487	-118.91167	0.072108551	-51.223006	
8.31	0.043041562	16.943303	0.061914964	-120.47266	0.061822366	-120.44796	0.067386551	-52.014181	
8.41	0.040718773	27.719991	0.061915968	-122.12204	0.061759343	-122.10354	0.059444853	-49.842942	
8.51	0.039492591	39.672556	0.061990716	-123.77941	0.061841021	-123.76531	0.048317258	-53.951132	
8.61	0.039268067	51.632816	0.061892236	-125.4558	0.061821021	-125.4376	0.041964991	-61.53545	
8.71	0.040531245	64.24929	0.061936059	-127.04497	0.061786496	-127.07127	0.0366115	-67.752855	
8.81	0.042612447	76.381645	0.061907593	-128.79248	0.06174388	-128.76558	0.028114084	-74.388253	
8.91	0.045459621	87.437452	0.0619071	-130.44792	0.061764718	-130.50952	0.0237561	-103.41953	
9.01	0.048934379	96.471211	0.061873209	-132.13574	0.061802016	-132.19994	0.027201508	-122.14786	
9.11	0.054732438	104.47008	0.061824415	-133.82949	0.061731953	-133.85159	0.032182775	-137.06544	
9.21	0.059918211	112.71956	0.061834843	-135.61415	0.061706833	-135.56965	0.035991094	-148.83025	
9.31	0.066198713	118.18983	0.061722539	-137.38807	0.06161604	-137.33657	0.047881603	-160.40911	
9.41	0.073305646	124.49741	0.061592953	-139.12251	0.061543335	-139.17471	0.057763334	-159.31952	
9.51	0.079787771	129.08527	0.061209884	-140.77274	0.061125378	-140.77744	0.063516441	-163.5189	
9.61	0.086337032	133.51014	0.061119322	-142.40688	0.060985772	-142.33528	0.074017679	-166.38998	
9.71	0.09234053	137.93145	0.061023323	-143.94246	0.060904005	-143.93466	0.085227107	-167.21665	
9.81	0.09831429	141.7851	0.060761359	-145.60478	0.060705422	-145.52988	0.094197799	-166.2155	
9.91	0.1042392	145.13738	0.060667009	-147.00717	0.060436956	-146.98567	0.10072647	-167.49398	
10.01	0.10988412	148.24375	0.060542086	-148.57001	0.060402843	-148.56731	0.11151798	-168.59631	
10.11	0.11623331	151.35467	0.060344357	-150.14883	0.060281862	-150.19263	0.12244135	-168.40966	
10.21	0.12163744	154.20419	0.060138632	-151.64028	0.060048691	-151.65558	0.13078815	-166.79059	
10.31	0.12734678	157.23372	0.059918033	-153.0708	0.059793992	-153.0373	0.13617554	-167.28348	
10.41	0.1320891	159.35087	0.059783215	-154.49729	0.059597668	-154.47959	0.14707354	-167.38676	
10.51	0.13805213	161.77595	0.059705531	-155.82136	0.059595651	-155.85696	0.15719546	-166.52245	
10.61	0.14284441	164.26725	0.059735602	-157.24991	0.059625666	-157.23781	0.16426275	-165.19466	
10.71	0.14734248	166.41109	0.059632378	-158.79049	0.059502078	-158.77089	0.16983276	-165.5384	
10.81	0.15195485	168.42652	0.059563849	-160.20997	0.059461075	-160.25257	0.18013413	-165.22553	
10.91	0.15574373	170.37523	0.059543558	-161.6961	0.059372424	-161.7668	0.18750919	-163.89391	
11.01	0.16003479	172.05255	0.059455368	-163.19188	0.059284488	-163.23608	0.1922887	-162.9646	
11.11	0.16325347	174.02507	0.059254942	-164.59495	0.059139081	-164.65965	0.19624965	-162.88879	
11.21	0.16616723	175.44682	0.059261803	-166.05424	0.059077875	-166.03874	0.20392778	-162.6103	
11.31	0.1690499	176.80206	0.059161451	-167.53717	0.059011794	-167.56317	0.20880811	-161.51523	
11.41	0.17225273	178.03705	0.059020262	-168.96807	0.05895914	-168.92847	0.21151651	-160.6762	
11.51	0.17451878	179.39376	0.058950755	-170.44215	0.058821943	-170.32595	0.21291251	-160.89644	
11.61	0.17678514	-179.66015	0.058873459	-171.90945	0.05871101	-171.89355	0.21968257	-161.0919	
11.71	0.17910769	-178.59871	0.058722918	-173.31031	0.058608098	-173.33211	0.22205842	-160.23055	
11.81	0.18108054	-177.81283	0.058598257	-174.69142	0.058470216	-174.76612	0.22382134	-160.40701	
11.91	0.18306413	-177.02786	0.05852667	-176.19725	0.05843914	-176.25125	0.22585778	-160.64282	
12.01	0.18515113	-176.35592	0.058428771	-177.66235	0.058388424	-177.67835	0.2309838	-160.97646	
12.11	0.18716423	-175.77105	0.058291827	-179.19663	0.058244868	-179.19303	0.23283135	-160.4079	
12.21	0.18945333	-175.323	0.058132458	179.37123	0.058052201	179.32043	0.23389307	-161.01574	
12.31	0.19179745	-175.01622	0.058087481	177.77807	0.057940541	177.71147	0.2372572	-161.5207	
12.41	0.19415906	-175.01494	0.057754352	176.09793	0.057621521	176.08933	0.24264899	-161.96439	
12.51	0.19558901	-175.11545	0.057289278	174.61873	0.057164097	174.64543	0.24465415	-161.40094	
12.61	0.19650855	-174.90058	0.056919251	173.54343	0.056775266	173.58553	0.24566579	-162.41392	
12.71	0.19878195	-174.08775	0.056874866	172.44457	0.056737525	172.46867	0.25122903	-162.87907	
12.81	0.20121748	-173.69572	0.056928714	171.06654	0.056791243	171.11564	0.25593507	-163.19406	
12.91	0.20466804	-173.18643	0.056988914	169.6587	0.056851297	169.6598	0.25921369	-162.85775	
13.01	0.20770234	-172.9121	0.056950093	168.23821	0.05683874	168.23711	0.2614812	-163.68274	
13.11	0.21215096	-172.67926	0.056813665	166.71369	0.056722166	166.69599	0.26754904	-164.10784	
13.21	0.21610176	-172.26525	0.056703287	165.22103	0.056664132	165.18033	0.27215122	-164.27175	
13.31	0.21976973	-172.05433	0.056491964	163.64859	0.05639449	163.61939	0.27642881	-164.22393	
13.41	0.22419859	-171.75923	0.056308994	162.37287	0.056140693	162.35177	0.27996529	-164.81946	
13.51	0.22889996	-171.25051	0.056182139	160.95599	0.056014217	160.98339	0.28754614	-165.10539	
13.61	0.23393374	-170.90752	0.056092819	159.52763	0.055918726	159.55523	0.29339605	-164.95702	
13.71	0.24003519	-170.39639	0.055981197	158.1132	0.055858875	158.0833	0.29831193	-164.79805	
13.81	0.24552206	-169.67099	0.055772374	156.68433	0.05572103	156.71323	0.30360686	-165.14722	
13.91	0.25119933	-169.11683	0.055647419	155.23145	0.055615395	155.25725	0.31285486	-164.92397	
14.01	0.25803921	-168.48451	0.055461865	153.86244	0.05543633	153.82434	0.31813661	-164.36885	
14.11	0.26408923	-167.54052	0.055330591	152.43538	0.055222404	152.46018	0.32469342	-164.00711	
14.21	0.26977664	-166.73444	0.055063973	151.0551	0.054987952	151.1014	0.3305632	-163.84094	
14.31	0.27675734	-165.87091	0.054871261	149.77518	0.054789198	149.75538	0.34000463	-163.18938	
14.41	0.28334005	-164.82982	0.054770371	148.34734	0.054682163	148.40704	0.34422042	-162.31025	
14.51	0.29016084	-163.74765	0.054570903	147.02458	0.054483016	147.00118	0.35097662	-161.82686	
14.61	0.29671558	-162.60064	0.05440603	145.65155	0.054312156	145.69505	0.35635364	-161.08562	
14.71	0.30311802	-161.35798	0.054250995	144.33294	0.054138686	144.40654	0.36507845	-160.23702	
14.81	0.3094078	-160.29177	0.054076639	143.02493	0.053908803	143.06563	0.36889778	-158.89944	
14.91	0.31595357	-158.82818	0.053770297	141.66243	0.0536837	141.65183	0.37399753	-158.2466	
15.01	0.32120487	-157.55973	0.053666627	140.44129	0.053512385	140.40389	0.37921905	-157.16687	
15.11	0.32614821	-156.25519	0.053402057	139.15978	0.053248574	139.22498	0.38546328	-156.21171	
15.21	0.33116621	-154.9032	0.053149151	138.11909	0.053026912	138.11029	0.38900981	-154.61333	
15.31	0.33604256	-153.47312	0.053143374	137.10477	0.053057786	137.12987	0.39234943	-153.83241	
15.41	0.34032285	-152.17507	0.05318198	135.81193	0.053090218	135.89043	0.39726017	-152.46558	
15.51	0.34399546	-150.77312	0.053069544	134.52871	0.053002378	134.50551	0.40060038	-151.22987	
15.61	0.34547222	-149.26059	0.053022442	133.17007	0.052937049	133.18907	0.40223448	-149.59952	
15.71	0.34611367	-147.75586	0.052834669	131.94298	0.052743506	131.96168	0.40272121	-148.73145	
15.81	0.34866321	-146.03385	0.052614916	130.9965	0.052584637	130.9722	0.40665591	-147.35097	
15.91	0.35079516	-144.48302	0.052716133	129.84616	0.052637293	129.81146	0.40692313	-145.85384	
16.01	0.35039885	-142.97373	0.052773142	128.49076	0.052724559	128.49276	0.40597066	-144.40832	
16.11	0.34835869	-141.32479	0.052577658	127.11278	0.052559502	127.12998	0.40424878	-143.3977	
16.21	0.34708454	-139.28191	0.052291933	126.12639	0.052183679	126.15059	0.40582333	-142.02585	
16.31	0.34825729	-137.23025	0.052309973	125.314	0.052159629	125.3451	0.40240304	-140.43972	
16.41	0.34849012	-135.41572	0.052540321	124.35421	0.05243759	124.44211	0.39843022	-139.29603	
16.51	0.3473336	-133.97113	0.052857161	123.37224	0.052741665	123.40484	0.39286225	-138.24848	
16.61	0.34499622	-132.79263	0.053224258	122.26322	0.053163017	122.18732	0.38969229	-137.2846	
16.71	0.34148634	-131.54628	0.05365391	121.00955	0.053444298	121.03625	0.38401131	-135.95776	
16.81	0.33492024	-130.3742	0.054179577	119.72004	0.054073641	119.78414	0.37628805	-134.93869	
16.91	0.32907132	-129.21545	0.054742594	118.12063	0.054679605	118.14813	0.36804733	-134.21747	
17.01	0.32022143	-128.23463	0.055133732	116.43715	0.054943636	116.48235	0.36081922	-133.48083	
17.11	0.31053388	-127.48245	0.05548308	114.94705	0.055285414	114.88255	0.35061047	-132.57963	
17.21	0.29793754	-127.03494	0.055963542	113.27397	0.055821972	113.25247	0.33933996	-132.01663	
17.31	0.28313921	-126.54473	0.056409397	111.42893	0.056363952	111.43364	0.32645144	-131.81271	
17.41	0.26408132	-126.05683	0.056970288	109.51083	0.056845806	109.59682	0.31480293	-131.63962	
17.51	0.24304837	-124.98992	0.057471342	107.44488	0.057358971	107.45578	0.29853702	-131.67974	
17.61	0.22244541	-122.93897	0.057964425	105.30085	0.05786441	105.36955	0.28339557	-132.39174	
17.71	0.20583303	-120.74574	0.05861267	103.14867	0.058511536	103.08397	0.26697217	-133.28809	
17.81	0.18588077	-120.48002	0.059184106	100.3529	0.059054785	100.2986	0.25151737	-134.41071	
17.91	0.16405212	-118.41339	0.058801738	97.103472	0.058754369	97.190372	0.23051681	-135.65464	
18.01	0.14759045	-113.97008	0.057940599	94.823838	0.057800686	94.945332	0.21224052	-139.28709	
18.11	0.1380991	-113.19968	0.057640157	93.223038	0.057613611	93.25154	0.1939629	-142.23104	
18.21	0.12557328	-116.45635	0.057984205	91.360229	0.057790934	91.332833	0.17511707	-148.08961	
18.31	0.10716303	-121.81158	0.058144056	89.178129	0.058043729	89.167728	0.1567882	-153.87228	
18.41	0.08470361	-131.1087	0.058492264	86.789385	0.05841151	86.835185	0.14239855	-165.3123	
18.51	0.064143691	-144.26725	0.059003112	84.791543	0.058942007	84.704343	0.13916755	-174.36921	
18.61	0.052592207	-166.64753	0.059822562	82.048294	0.059609435	82.092894	0.13393214	173.87091	
18.71	0.054480776	167.23769	0.060360538	79.117153	0.060193986	79.163853	0.13640211	162.41133	
18.81	0.07025822	139.31637	0.060626904	75.644907	0.060383105	75.635604	0.14648476	148.69172	
18.91	0.097493743	124.11981	0.06046207	72.275446	0.060302184	72.291943	0.16691939	140.4457	
19.01	0.12374728	114.39963	0.059983929	69.237612	0.059763349	69.202613	0.18447548	132.85706	
19.11	0.14780444	107.02695	0.059422353	66.370677	0.059258387	66.428177	0.20832216	127.52597	
19.21	0.17128245	105.15256	0.059369041	63.539888	0.059280251	63.562688	0.23092338	122.87762	
19.31	0.19585471	105.48722	0.059244382	60.312215	0.059053708	60.387415	0.25929632	119.47101	
19.41	0.2251496	105.61505	0.058751033	57.117444	0.058636158	57.138344	0.28377418	116.84704	
19.51	0.25507873	105.0278	0.057976228	53.878947	0.057743082	53.858047	0.31082344	114.7957	
19.61	0.28576471	104.51127	0.056922315	50.680642	0.056752185	50.71134	0.33606505	113.68937	
19.71	0.31330203	103.91317	0.055690911	47.77151	0.055562826	47.901105	0.35887134	112.9708	
19.81	0.33893548	103.21063	0.05437389	45.618153	0.054161472	45.652549	0.38073504	111.81158	
19.91	0.35824514	103.46702	0.053401117	43.479541	0.053284433	43.553539	0.40588889	111.30776	
20.01	0.37606315	104.40058	0.052620065	41.573364	0.052529271	41.665764	0.42797475	111.21212	
