!
! Hittite Microwave Corporation
! 2 Elizabeth Drive
! Chelmsford, MA 01824
! http://www.hittite.com
! Tel: 978-250-3343
! Fax: 978-250-3373
! 
! Device:      HMC424LP3
! Description: 0.5 dB GaAs MMIC 6-Bit Digital Attenuator
! Frequency:    DC -  13.00 GHz
! Package:     LP3  - 3x3 mm Quad Flatpack No-Lead (QFN) Plastic Package: 16 pin
! Ports:       2 RF, 7 DC
!              Pad  1  = Ground
!              Pad  2  = RF IN   = Port 1
!              Pad  3  = Ground
!              Pad  4  = V6
!              Pad  5  = V5
!              Pad  6  = V4
!              Pad  7  = V3
!              Pad  8  = V2
!              Pad  9  = V1
!              Pad 10  = Ground
!              Pad 11  = RF OUT  = Port 2
!              Pad 12  = Ground
!              Pad 15  = VEE
!
! Control:     -5 Volt control voltage
! State:        40 
! Attenuation:  20.0 dB
! Voltages:    Vdd = -5.00 Volts  Idd =  -2.270 mA
!              V1  = 0.00 Volts  I1  =  29.0 uA
!              V2  = 0.00 Volts  I2  =  29.0 uA
!              V3  = 0.00 Volts  I3  =  29.0 uA
!              V4  = -5.00 Volts  I4  =  -1.0 uA
!              V5  = 0.00 Volts  I5  =  29.0 uA
!              V6  = -5.00 Volts  I6  =  -1.0 uA
!
! Data:    The device was measured on evaluation board 105354-1. 
!          Data was collected using a calibrated network analyzer.
!          The evaluation circuit board was modeled and simulated.  This was use
!          to removed the evaluation board circuit from the measured data.
!          The reference plane is the edge of the package pin.
!
! Misc:    Lot xxxx, Unit 1
!          Application 20120001, Data collected in Application 20090083
!
! Date Measured:  2009-09-15
! Date:           2012-05-14  MJV
! Note: 
!   Hittite supplies this data as a sample of measured data at the package pin
!   for this product.  Your particular data for this product may vary.
!   Data was taken at 25 degrees C.
!   Hittite reserves the right to change this data at anytime.
!
# GHz S MA R 50

0.01	0.11016597	2.5704675	0.074355076	-0.97270552	0.074991255	-0.86550552	0.044573129	8.7344646	
0.11	0.10696225	-3.017345	0.074769568	-2.0062081	0.074631964	-2.1632081	0.041292175	0.51859945	
0.21	0.10762053	-5.616457	0.074675368	-3.5747414	0.074623802	-3.7718414	0.04063696	-7.5817058	
0.31	0.10923031	-7.927401	0.074577868	-5.0914918	0.074414911	-5.2052918	0.046030724	-10.041985	
0.41	0.10994029	-10.386071	0.074509873	-6.5852895	0.074492718	-6.6127895	0.046752461	-10.743116	
0.51	0.11181155	-12.754426	0.074404883	-8.1259377	0.07426795	-8.2013377	0.045869461	-12.946423	
0.61	0.11309447	-15.347357	0.074348183	-9.653979	0.074168648	-9.647179	0.047265268	-19.282878	
0.71	0.11581389	-17.597893	0.074254386	-11.151797	0.074083606	-11.115497	0.053684486	-20.857874	
0.81	0.11779852	-19.709242	0.074094337	-12.610952	0.074043172	-12.519652	0.053555977	-19.718921	
0.91	0.12080615	-21.666684	0.074050519	-14.061952	0.073914239	-14.055952	0.05481114	-24.56996	
1.01	0.12283507	-23.277142	0.073928871	-15.449254	0.073869315	-15.527454	0.058303997	-27.805212	
1.11	0.12545988	-25.169198	0.073830579	-16.97446	0.07378809	-16.94086	0.064873505	-27.222388	
1.21	0.12756171	-26.622491	0.073814026	-18.391659	0.073695148	-18.394559	0.063483425	-25.733316	
1.31	0.13007405	-28.284059	0.073758691	-19.91421	0.073673822	-19.89681	0.065929376	-30.332513	
1.41	0.13232597	-29.459533	0.073694135	-21.249532	0.073541575	-21.281832	0.070511368	-30.757461	
1.51	0.13412683	-30.929604	0.073570729	-22.765569	0.073477617	-22.810769	0.074642406	-29.483264	
1.61	0.1365172	-32.131637	0.073519586	-24.183794	0.073426538	-24.219394	0.072768496	-28.513517	
1.71	0.13790868	-33.381087	0.073482934	-25.639122	0.073313928	-25.604322	0.074450412	-32.741337	
1.81	0.13962526	-34.565952	0.073317576	-26.997494	0.073224784	-27.064294	0.078824402	-32.423234	
1.91	0.14044003	-35.693926	0.073333153	-28.49659	0.07318134	-28.54559	0.080024045	-31.750272	
2.01	0.141491	-36.904267	0.073191865	-29.959646	0.073065576	-29.927646	0.077867537	-32.039247	
2.11	0.14197539	-38.245303	0.073099106	-31.374773	0.072972977	-31.357373	0.079794332	-36.393018	
2.21	0.14274662	-39.642577	0.073045427	-32.691613	0.072936183	-32.758113	0.084304283	-35.963278	
2.31	0.14332301	-41.028131	0.073098533	-34.182558	0.072846495	-34.221858	0.083527115	-35.821918	
2.41	0.14351733	-42.583914	0.072960715	-35.642232	0.072818056	-35.653832	0.081690327	-37.618681	
2.51	0.14373063	-44.129749	0.072878622	-37.034546	0.072778006	-36.963846	0.084369349	-41.731167	
2.61	0.14364058	-45.761135	0.072817453	-38.45869	0.07269181	-38.45099	0.088334422	-40.993328	
2.71	0.14410995	-47.503243	0.072737388	-39.84737	0.072695529	-39.90327	0.086147656	-41.703084	
2.81	0.14346277	-49.354567	0.072607388	-41.338774	0.072615748	-41.340674	0.085548308	-44.424677	
2.91	0.14416097	-51.304678	0.072572997	-42.795278	0.072464459	-42.775678	0.088659057	-47.865428	
3.01	0.14404524	-53.269831	0.072485346	-44.219747	0.072385273	-44.126147	0.091993471	-47.172907	
3.11	0.14455318	-55.362726	0.072429024	-45.660522	0.072295727	-45.660322	0.088612487	-48.309909	
3.21	0.14447813	-57.374224	0.072278112	-47.041433	0.072178325	-47.062433	0.089078603	-52.040982	
3.31	0.14505352	-59.706947	0.072303434	-48.529779	0.072103928	-48.423379	0.092428415	-54.425326	
3.41	0.14556865	-61.964176	0.072184442	-49.933078	0.072010131	-49.904478	0.094542981	-54.157452	
3.51	0.14663768	-64.255692	0.072179046	-51.268513	0.071955027	-51.367913	0.090995614	-56.478987	
3.61	0.14754433	-66.675861	0.071960044	-52.782775	0.071877244	-52.855075	0.093438252	-60.866523	
3.71	0.14951444	-68.920901	0.0718996	-54.141569	0.071808602	-54.183669	0.097329804	-62.591113	
3.81	0.15129537	-71.123202	0.071747665	-55.632117	0.071739406	-55.737817	0.098400641	-62.782095	
3.91	0.15333368	-73.378483	0.071659345	-57.057546	0.071568651	-57.015146	0.095997096	-66.388318	
4.01	0.16187329	-74.434658	0.071668476	-58.413585	0.07147895	-58.431185	0.10833961	-68.235611	
4.11	0.16410019	-76.114807	0.071551727	-59.863918	0.071395381	-59.858018	0.11251989	-68.480373	
4.21	0.166849	-77.787197	0.071519407	-61.259177	0.071297435	-61.239477	0.11356144	-68.875684	
4.31	0.17019992	-79.164702	0.071325343	-62.663476	0.071235072	-62.694676	0.11360661	-71.653984	
4.41	0.17284994	-80.353212	0.071150874	-64.091533	0.071134493	-64.106233	0.12071597	-73.365821	
4.51	0.17555767	-81.498539	0.071107536	-65.424748	0.070968501	-65.525248	0.12377097	-72.404648	
4.61	0.17819796	-82.618339	0.070964917	-66.934814	0.070907749	-66.931114	0.12422365	-72.61905	
4.71	0.18138581	-83.498413	0.070889625	-68.305422	0.070759162	-68.287222	0.12471763	-74.364684	
4.81	0.18359429	-84.320006	0.070784511	-69.684005	0.070629843	-69.677505	0.13180571	-75.195727	
4.91	0.18638287	-85.020717	0.070593165	-71.110938	0.07047136	-71.107438	0.13333923	-73.465723	
5.01	0.18849398	-85.669086	0.070556908	-72.437978	0.070370322	-72.465478	0.13252615	-73.912447	
5.11	0.19120858	-86.006447	0.07040558	-73.822296	0.070267917	-73.845596	0.13353896	-75.023471	
5.21	0.19271537	-86.448492	0.070254742	-75.154132	0.070206228	-75.230232	0.13936543	-75.485669	
5.31	0.1948912	-86.707368	0.070088676	-76.597517	0.07000803	-76.632917	0.14027924	-73.383859	
5.41	0.1961442	-86.821192	0.070063167	-77.981105	0.069990608	-77.984205	0.13869524	-74.173117	
5.51	0.19765958	-86.931444	0.069949738	-79.282496	0.069853166	-79.298996	0.14127156	-74.772734	
5.61	0.19851862	-86.774594	0.069813332	-80.65925	0.069757092	-80.66325	0.14595028	-74.596204	
5.71	0.19862761	-86.820745	0.069726399	-82.072514	0.069654188	-82.062914	0.14594853	-72.317335	
5.81	0.19889769	-86.491707	0.069688366	-83.348995	0.069560114	-83.352595	0.14353111	-72.90993	
5.91	0.19826762	-86.399597	0.069599581	-84.693262	0.069535507	-84.761162	0.14730632	-73.094703	
6.01	0.19765182	-86.072488	0.069556732	-86.13007	0.069468699	-86.14037	0.15078493	-71.761245	
6.11	0.19642126	-85.74984	0.06945471	-87.417475	0.069342852	-87.442975	0.14970111	-69.368367	
6.21	0.19463207	-85.092159	0.069433759	-88.839561	0.069297996	-88.819161	0.14623727	-69.622245	
6.31	0.19251181	-84.876077	0.069363358	-90.219812	0.069243676	-90.224412	0.14955855	-69.106701	
6.41	0.18966069	-84.099009	0.069378493	-91.486056	0.069187058	-91.553056	0.15040611	-67.141081	
6.51	0.18612203	-83.603725	0.069283767	-92.949461	0.069243896	-92.914461	0.14808806	-64.563033	
6.61	0.18165318	-83.019332	0.069430742	-94.33132	0.069287008	-94.36322	0.14296029	-64.274042	
6.71	0.1772359	-82.617112	0.069370914	-95.766732	0.069243245	-95.751932	0.14469249	-63.65658	
6.81	0.17243957	-82.021252	0.069342427	-97.181015	0.069254666	-97.176515	0.14267503	-61.249678	
6.91	0.16664371	-81.59204	0.069372276	-98.602946	0.069236634	-98.672546	0.13867368	-59.291364	
7.01	0.16062869	-81.272414	0.069394785	-100.10264	0.069235181	-100.10594	0.13235203	-58.764706	
7.11	0.15422889	-81.010599	0.069342716	-101.59607	0.069294832	-101.55017	0.13292695	-58.61268	
7.21	0.14711992	-80.840632	0.069366705	-102.97978	0.069231073	-103.01298	0.12910378	-55.630496	
7.31	0.13939001	-80.702197	0.069439811	-104.50499	0.069327977	-104.48759	0.12264259	-54.69954	
7.41	0.13166372	-80.909943	0.069564966	-106.02408	0.06945293	-105.99478	0.11693034	-54.723085	
7.51	0.12326897	-81.135162	0.069607836	-107.53748	0.069551761	-107.56758	0.11585194	-54.864862	
7.61	0.11499372	-81.94782	0.069653548	-109.09537	0.069517356	-109.06687	0.1114686	-51.924205	
7.71	0.1062051	-82.889678	0.069744682	-110.70908	0.069648393	-110.68708	0.10353511	-51.404423	
7.81	0.097459582	-84.772196	0.06980898	-112.30478	0.069648424	-112.31978	0.097566338	-51.736296	
7.91	0.08874978	-86.780184	0.06977261	-113.87789	0.069668261	-113.87759	0.094539475	-52.112572	
8.01	0.079842422	-89.820514	0.069770765	-115.56887	0.069722586	-115.52847	0.088310006	-49.238473	
8.11	0.071496622	-94.410517	0.069829453	-117.17156	0.069733046	-117.15706	0.078819983	-49.916388	
8.21	0.064013733	-100.44522	0.069874935	-118.84312	0.069658066	-118.90572	0.072124558	-51.566099	
8.31	0.057254417	-108.27864	0.069836156	-120.49396	0.069707631	-120.48776	0.067403349	-52.418789	
8.41	0.052397197	-118.65031	0.069706905	-122.14193	0.069602654	-122.19933	0.05942935	-50.237752	
8.51	0.050170344	-130.97816	0.069812787	-123.85185	0.06972443	-123.88835	0.048309646	-54.53349	
8.61	0.05070229	-143.40031	0.069834673	-125.64009	0.069706151	-125.60759	0.042032607	-62.232454	
8.71	0.054382541	-155.92173	0.069828394	-127.28147	0.069619685	-127.26857	0.036735144	-68.339017	
8.81	0.060593294	-165.62827	0.069748085	-128.98586	0.069619723	-129.04346	0.028136283	-75.431744	
8.91	0.069188282	-172.76017	0.069664814	-130.78158	0.069656794	-130.80418	0.023985276	-104.45905	
9.01	0.077829506	-177.65951	0.069705035	-132.46792	0.069560733	-132.51322	0.027590589	-122.91686	
9.11	0.087556427	177.5944	0.069591632	-134.22405	0.069423582	-134.25215	0.032514261	-137.51286	
9.21	0.098541799	175.11374	0.069419367	-136.01584	0.069331508	-135.95974	0.036392956	-148.95721	
9.31	0.10862232	172.62152	0.069336118	-137.78762	0.069216482	-137.78582	0.04826275	-160.54571	
9.41	0.12051662	171.15765	0.069179733	-139.58722	0.06899679	-139.53142	0.058197066	-159.34773	
9.51	0.13084902	170.28345	0.068800145	-141.17229	0.068657716	-141.18799	0.063854179	-163.46269	
9.61	0.14167067	169.71489	0.068553001	-142.82591	0.068450476	-142.75581	0.07456195	-166.42602	
9.71	0.15183944	169.73521	0.068447402	-144.40751	0.068282116	-144.32191	0.085601812	-167.28457	
9.81	0.16143638	169.78874	0.068144827	-146.05629	0.067995926	-146.01799	0.094729696	-166.29746	
9.91	0.17073914	169.95182	0.067839663	-147.54084	0.067769406	-147.40304	0.10114048	-167.56278	
10.01	0.17950784	170.13972	0.067766817	-149.0485	0.067649889	-149.1015	0.11189653	-168.6623	
10.11	0.18833451	170.47456	0.067459696	-150.68458	0.067413112	-150.69558	0.12277047	-168.47168	
10.21	0.19645465	170.89924	0.067180034	-152.14077	0.067125915	-152.17867	0.13116343	-166.89077	
10.31	0.20441165	171.62622	0.066859669	-153.57713	0.066767363	-153.55483	0.13647515	-167.38869	
10.41	0.21081758	171.97395	0.066672881	-154.98953	0.06655784	-154.98453	0.1474587	-167.46939	
10.51	0.21821114	172.49638	0.066559858	-156.32599	0.066445012	-156.29119	0.15755445	-166.59432	
10.61	0.22460368	173.1744	0.066439191	-157.70223	0.066378027	-157.74013	0.16459127	-165.32487	
10.71	0.23028244	173.78548	0.06631317	-159.19984	0.066236868	-159.19494	0.1700873	-165.5899	
10.81	0.23569507	174.34731	0.066204383	-160.67386	0.066173902	-160.64726	0.18036188	-165.31022	
10.91	0.24020155	174.9477	0.066111385	-162.03737	0.065959333	-162.06037	0.18772205	-163.99696	
11.01	0.245068	175.38653	0.065974952	-163.49327	0.065891453	-163.46197	0.1925377	-163.01024	
11.11	0.24846398	176.08581	0.065754961	-164.86798	0.065633947	-164.90458	0.19642555	-162.98436	
11.21	0.2515508	176.50579	0.065664431	-166.32089	0.06555113	-166.27009	0.20421113	-162.69847	
11.31	0.25420317	176.86189	0.065521536	-167.77375	0.065468753	-167.67615	0.20905658	-161.57597	
11.41	0.25729049	177.19401	0.065439937	-169.05283	0.065296946	-169.05733	0.21159567	-160.72697	
11.51	0.25909943	177.58657	0.065248114	-170.37365	0.065135532	-170.42245	0.21317393	-160.97017	
11.61	0.26088141	177.77711	0.065060966	-171.87908	0.064993588	-171.91288	0.21972375	-161.13408	
11.71	0.2625634	177.98086	0.064938637	-173.32238	0.064938637	-173.33488	0.22236164	-160.31051	
11.81	0.26394373	178.15623	0.064840441	-174.67028	0.064728562	-174.70638	0.2238489	-160.48151	
11.91	0.26509788	178.18583	0.064750591	-176.13817	0.064549627	-176.12387	0.22586412	-160.72454	
12.01	0.26632228	178.1956	0.064547231	-177.5952	0.064495233	-177.5874	0.23109731	-161.06595	
12.11	0.26760883	178.18157	0.064506854	-179.06677	0.064336268	-179.05647	0.23283023	-160.46089	
12.21	0.26885269	178.08734	0.064322846	179.63256	0.064182296	179.55746	0.23399486	-161.12625	
12.31	0.27011432	177.91663	0.064054128	178.04713	0.064009897	178.02853	0.23732111	-161.55653	
12.41	0.27151836	177.59501	0.063799788	176.4641	0.063733715	176.4725	0.24289207	-162.04399	
12.51	0.2722249	177.19911	0.063360532	175.07431	0.063258489	175.15801	0.24476172	-161.48342	
12.61	0.27266277	176.94971	0.063025349	174.01178	0.06293109	174.02608	0.24584428	-162.49448	
12.71	0.27374742	177.12112	0.06308559	172.85527	0.062897035	172.84377	0.25132781	-162.93542	
12.81	0.27484887	177.06441	0.063008714	171.49207	0.06294346	171.47407	0.25609827	-163.23909	
12.91	0.27706087	177.07336	0.06302656	170.11927	0.062990289	170.05657	0.25935289	-162.92293	
13.01	0.27868149	176.96433	0.062981866	168.63387	0.062844247	168.67277	0.26151733	-163.75079	
13.11	0.28159916	176.89654	0.062915657	167.22693	0.062770955	167.20463	0.26767945	-164.15142	
13.21	0.28384631	176.94315	0.062703827	165.73845	0.062646101	165.76305	0.27220816	-164.3082	
13.31	0.28601444	176.90642	0.062487215	164.32371	0.062393762	164.31021	0.27646055	-164.28464	
13.41	0.28890333	176.92784	0.062301805	162.9542	0.062165672	163.0224	0.2800061	-164.84835	
13.51	0.29175875	177.14239	0.062184821	161.6638	0.06209182	161.7057	0.28766409	-165.12956	
13.61	0.29493092	177.27732	0.062052286	160.29969	0.06195235	160.25689	0.29352794	-165.00556	
13.71	0.29883218	177.60841	0.061990652	158.95038	0.061855198	158.87498	0.29842873	-164.82303	
13.81	0.30202194	178.11948	0.061833124	157.50247	0.061705119	157.51467	0.30365176	-165.19012	
13.91	0.30541752	178.51518	0.061589514	156.09468	0.061518647	156.10798	0.31299157	-164.96703	
14.01	0.30978324	179.04345	0.061409002	154.7344	0.061352469	154.7101	0.31811719	-164.39696	
14.11	0.3130495	179.79567	0.061226975	153.42829	0.061051003	153.41349	0.32482905	-164.06583	
14.21	0.31602349	-179.53553	0.061044512	152.05957	0.060981293	152.11877	0.33059785	-163.874	
14.31	0.32022126	-178.71998	0.060868655	150.81909	0.060735654	150.75109	0.3400785	-163.21406	
14.41	0.32353565	-177.76809	0.060662228	149.50109	0.060529678	149.48339	0.34425336	-162.34588	
14.51	0.32720155	-176.72924	0.060543254	148.20551	0.060431832	148.17491	0.35101584	-161.84892	
14.61	0.33043054	-175.60626	0.060485613	146.92535	0.060277063	146.91865	0.35649747	-161.11746	
14.71	0.33323102	-174.40169	0.060215466	145.64608	0.060125411	145.60918	0.3650799	-160.26196	
14.81	0.33631811	-173.32417	0.060074164	144.32088	0.059998133	144.36308	0.36900206	-158.92442	
14.91	0.33894357	-171.81531	0.059919733	143.13365	0.059788805	143.06795	0.37399179	-158.26688	
15.01	0.34054718	-170.52827	0.059768937	141.83391	0.059617744	141.81911	0.3792847	-157.19458	
15.11	0.34212926	-169.2092	0.059511699	140.69796	0.059367991	140.62336	0.38557948	-156.23354	
15.21	0.34336147	-167.81789	0.059351431	139.60203	0.059269491	139.55513	0.38910691	-154.63672	
15.31	0.34437297	-166.32437	0.059457392	138.51112	0.059313815	138.43702	0.39241709	-153.85933	
15.41	0.34503061	-164.91168	0.059497074	137.30203	0.059387577	137.29443	0.39732508	-152.48556	
15.51	0.34499867	-163.40894	0.059419815	136.01161	0.05938562	135.97251	0.4007214	-151.26734	
15.61	0.3429336	-161.86558	0.059360757	134.73788	0.059292454	134.67218	0.40241869	-149.63132	
15.71	0.34021574	-160.37247	0.059320173	133.47402	0.059183741	133.49642	0.40282354	-148.7685	
15.81	0.33877223	-158.58042	0.059260461	132.4681	0.059124165	132.4557	0.40670781	-147.38262	
15.91	0.33703578	-156.89083	0.059336134	131.25066	0.059226933	131.31916	0.40695843	-145.91104	
16.01	0.33304196	-155.3324	0.059426868	129.96108	0.059378995	130.08558	0.40611647	-144.44933	
16.11	0.32761193	-153.64864	0.059360328	128.6605	0.059257904	128.7416	0.40447442	-143.42101	
16.21	0.32194626	-151.59168	0.059204802	127.67578	0.05908904	127.74108	0.40586342	-142.06046	
16.31	0.31854468	-149.3567	0.059281812	126.82421	0.059193152	126.76731	0.40252702	-140.50906	
16.41	0.31432944	-147.37495	0.059663829	125.69694	0.059615765	125.71254	0.39856435	-139.35174	
16.51	0.30909939	-145.75636	0.060078285	124.49567	0.060016067	124.52017	0.39301565	-138.31009	
16.61	0.30320784	-144.38381	0.060570576	123.17521	0.060375633	123.25371	0.38965523	-137.34973	
16.71	0.29621038	-142.91579	0.060896395	121.97019	0.060791321	121.99349	0.38395763	-136.02298	
16.81	0.28635973	-141.63063	0.061497815	120.55759	0.061391703	120.59979	0.37616188	-135.01472	
16.91	0.27712097	-140.2887	0.062154117	118.86355	0.062075454	118.89685	0.36805993	-134.26054	
17.01	0.26510764	-139.17524	0.062606498	117.13007	0.062520063	117.06387	0.36083578	-133.54398	
17.11	0.25301326	-138.36042	0.062896186	115.4725	0.062744304	115.5088	0.35057287	-132.67667	
17.21	0.23827935	-137.90966	0.063317881	113.78061	0.063281443	113.74791	0.33919386	-132.10419	
17.31	0.22155595	-137.50842	0.063817681	111.8526	0.063736911	111.8746	0.32628154	-131.90106	
17.41	0.20078086	-137.38039	0.064340647	109.90074	0.064237022	109.98443	0.31453153	-131.73	
17.51	0.17817387	-136.78159	0.064640805	107.91091	0.064447603	107.84371	0.29825748	-131.76947	
17.61	0.15470069	-134.91095	0.064980584	105.80417	0.064950666	105.86457	0.2830298	-132.46446	
17.71	0.13488045	-132.32195	0.065793057	103.67942	0.065603962	103.73282	0.26646309	-133.35374	
17.81	0.11295998	-132.64581	0.066356849	100.91798	0.06613567	100.98328	0.25139079	-134.51657	
17.91	0.089427339	-130.44961	0.065857601	98.070544	0.065683443	98.012144	0.23028592	-135.72342	
18.01	0.069273594	-123.08013	0.065264079	95.892311	0.065128969	95.894311	0.2116884	-139.41432	
18.11	0.056944826	-120.26241	0.065208239	94.136671	0.065065754	94.182771	0.19380256	-142.43051	
18.21	0.042934363	-126.20088	0.065550777	91.992398	0.065392486	92.017697	0.17465943	-148.24416	
18.31	0.025370288	-144.89722	0.065828749	89.579515	0.065692476	89.614115	0.15624364	-154.02111	
18.41	0.018740217	146.37748	0.066049569	87.118116	0.065905246	87.171716	0.14193262	-165.48181	
18.51	0.035273304	103.12378	0.066329242	84.943336	0.066245294	84.927636	0.13859915	-174.61989	
18.61	0.057569632	93.404329	0.067081136	82.274189	0.066988524	82.321189	0.13359524	173.54784	
18.71	0.079165148	90.825566	0.067508699	79.338509	0.067353433	79.300009	0.13605735	162.25419	
18.81	0.10867193	88.506948	0.067542178	75.933967	0.067394598	75.870966	0.14632469	148.48958	
18.91	0.13904066	88.15147	0.067209617	72.603552	0.067163199	72.711052	0.16699182	140.30656	
19.01	0.16679864	86.498373	0.066530618	69.704272	0.066354678	69.684977	0.18427485	132.70196	
19.11	0.19213899	84.320906	0.06583285	67.076093	0.065741961	67.050694	0.20804308	127.3371	
19.21	0.2131293	84.848527	0.06573136	64.443738	0.065602837	64.366038	0.23073793	122.71751	
19.31	0.23298355	86.459103	0.065553242	61.29448	0.065485354	61.20778	0.25936754	119.3371	
19.41	0.25634438	88.216582	0.065033674	58.229108	0.064801982	58.201808	0.28372968	116.76289	
19.51	0.28139707	89.227301	0.064166887	55.069951	0.064019307	55.099451	0.31105606	114.75939	
19.61	0.30626194	90.188149	0.063013697	52.047055	0.062999181	52.042857	0.33610954	113.63186	
19.71	0.32974458	90.867394	0.06175749	49.40023	0.061622544	49.376232	0.35895371	112.89905	
19.81	0.3515001	91.353849	0.060361212	47.194972	0.060118478	47.190574	0.38098749	111.78021	
19.91	0.36754311	92.33079	0.059349245	45.209287	0.059274135	45.242485	0.40566544	111.26778	
20.01	0.38129888	93.785892	0.058443481	43.389657	0.058645687	43.511857	0.42817682	111.22842	
