!
! Hittite Microwave Corporation
! 2 Elizabeth Drive
! Chelmsford, MA 01824
! http://www.hittite.com
! Tel: 978-250-3343
! Fax: 978-250-3373
! 
! Device:      HMC424LP3
! Description: 0.5 dB GaAs MMIC 6-Bit Digital Attenuator
! Frequency:    DC -  13.00 GHz
! Package:     LP3  - 3x3 mm Quad Flatpack No-Lead (QFN) Plastic Package: 16 pin
! Ports:       2 RF, 7 DC
!              Pad  1  = Ground
!              Pad  2  = RF IN   = Port 1
!              Pad  3  = Ground
!              Pad  4  = V6
!              Pad  5  = V5
!              Pad  6  = V4
!              Pad  7  = V3
!              Pad  8  = V2
!              Pad  9  = V1
!              Pad 10  = Ground
!              Pad 11  = RF OUT  = Port 2
!              Pad 12  = Ground
!              Pad 15  = VEE
!
! Control:     -5 Volt control voltage
! State:        45 
! Attenuation:  22.5 dB
! Voltages:    Vdd = -5.00 Volts  Idd =  -2.523 mA
!              V1  = -5.00 Volts  I1  =  -1.0 uA
!              V2  = 0.00 Volts  I2  =  29.0 uA
!              V3  = -5.00 Volts  I3  =  -1.0 uA
!              V4  = -5.00 Volts  I4  =  -1.0 uA
!              V5  = 0.00 Volts  I5  =  29.0 uA
!              V6  = -5.00 Volts  I6  =  -1.0 uA
!
! Data:    The device was measured on evaluation board 105354-1. 
!          Data was collected using a calibrated network analyzer.
!          The evaluation circuit board was modeled and simulated.  This was use
!          to removed the evaluation board circuit from the measured data.
!          The reference plane is the edge of the package pin.
!
! Misc:    Lot xxxx, Unit 1
!          Application 20120001, Data collected in Application 20090083
!
! Date Measured:  2009-09-15
! Date:           2012-05-14  MJV
! Note: 
!   Hittite supplies this data as a sample of measured data at the package pin
!   for this product.  Your particular data for this product may vary.
!   Data was taken at 25 degrees C.
!   Hittite reserves the right to change this data at anytime.
!
# GHz S MA R 50

0.01	0.033424701	166.98288	0.057005172	-1.7523544	0.056274839	-0.61145435	0.04504752	7.9412779	
0.11	0.03506839	179.80782	0.056745883	-2.1506253	0.056732819	-2.2670253	0.040451273	0.46628571	
0.21	0.03431155	-179.68425	0.056540308	-3.5979474	0.056468749	-3.6560474	0.039868471	-7.7133836	
0.31	0.032615023	-179.37592	0.056450307	-5.0119154	0.056352905	-5.0972154	0.045133387	-10.09497	
0.41	0.031995078	-178.42028	0.056428916	-6.4713362	0.056396442	-6.5551362	0.045762438	-10.766761	
0.51	0.030222923	-177.07342	0.056282892	-7.9907668	0.056237551	-8.0560668	0.044969165	-12.869255	
0.61	0.029343182	-175.12922	0.056264932	-9.4558907	0.056239027	-9.4975907	0.046413888	-19.484451	
0.71	0.027073094	-172.614	0.056225824	-10.909485	0.056174062	-10.914785	0.05273826	-20.979014	
0.81	0.025421658	-170.88172	0.056143357	-12.29686	0.056156286	-12.29036	0.052640202	-19.887506	
0.91	0.022987857	-168.08074	0.05615567	-13.822988	0.056091056	-13.779888	0.053891311	-24.58793	
1.01	0.021094681	-166.60976	0.056076601	-15.190323	0.056102431	-15.201323	0.057401534	-27.87968	
1.11	0.019223092	-162.65727	0.056079855	-16.686866	0.055950875	-16.714566	0.063886599	-27.238384	
1.21	0.017119403	-160.72636	0.056009409	-18.054435	0.055951405	-18.033735	0.062684106	-25.714726	
1.31	0.015303587	-155.9102	0.055999778	-19.577039	0.055883848	-19.481439	0.065055474	-30.38997	
1.41	0.012949825	-152.49994	0.055898802	-20.906193	0.055828055	-20.866293	0.069679828	-30.809377	
1.51	0.011583009	-147.26642	0.055855617	-22.352605	0.055784925	-22.340905	0.073767291	-29.491396	
1.61	0.0095412581	-138.44694	0.055834505	-23.754767	0.055744583	-23.820967	0.071866337	-28.483518	
1.71	0.0081389561	-131.21687	0.055752921	-25.241944	0.055663131	-25.092144	0.073552998	-32.773243	
1.81	0.0069125682	-119.02856	0.055662818	-26.657493	0.055643597	-26.624493	0.077991271	-32.378332	
1.91	0.0057242028	-110.1958	0.055722501	-27.993347	0.055651978	-28.008247	0.079177095	-31.733516	
2.01	0.0050787275	-96.226259	0.055572587	-29.482737	0.055585385	-29.475637	0.077044103	-31.858463	
2.11	0.0047107938	-84.71648	0.055510021	-30.840668	0.055541984	-30.820468	0.078919459	-36.340572	
2.21	0.0049289252	-74.628233	0.05564296	-32.272159	0.055508594	-32.368459	0.083373417	-35.886022	
2.31	0.0051101557	-65.218139	0.055536479	-33.613049	0.05542789	-33.732149	0.082618093	-35.699276	
2.41	0.0053008752	-62.196923	0.055450653	-34.967598	0.055501748	-35.099598	0.08084282	-37.49553	
2.51	0.0055922053	-58.942961	0.055394015	-36.467465	0.055336648	-36.466665	0.083502429	-41.642395	
2.61	0.0054598903	-61.103533	0.055417121	-37.966062	0.055302397	-37.912962	0.087521629	-40.905485	
2.71	0.0060254987	-62.154501	0.055266312	-39.340952	0.055240867	-39.232952	0.085223855	-41.559791	
2.81	0.0056724624	-68.534391	0.05522393	-40.740044	0.055211215	-40.740644	0.084626338	-44.369403	
2.91	0.0066740663	-72.542169	0.055222454	-42.150728	0.055139865	-42.159028	0.08784944	-47.831654	
3.01	0.0070440389	-80.344583	0.055288966	-43.616354	0.055066626	-43.602654	0.091222033	-47.091622	
3.11	0.0081127359	-86.947835	0.055182745	-44.979822	0.055043153	-44.988822	0.087719071	-48.25551	
3.21	0.0085081908	-93.329164	0.055036782	-46.451298	0.054941819	-46.407698	0.088278611	-51.947081	
3.31	0.010031087	-99.628025	0.055083049	-47.813549	0.054950035	-47.800049	0.091564499	-54.39859	
3.41	0.0115232	-104.67429	0.054963079	-49.297673	0.054950424	-49.192073	0.09371817	-54.101726	
3.51	0.013622991	-108.04395	0.054955881	-50.558084	0.054842113	-50.616584	0.090252424	-56.409515	
3.61	0.015732411	-112.0905	0.054926025	-52.049437	0.054780774	-52.132737	0.092646071	-60.833908	
3.71	0.01822455	-112.59499	0.054828316	-53.360883	0.054784147	-53.479183	0.09654953	-62.56896	
3.81	0.020690059	-113.05132	0.054686891	-54.917232	0.054680596	-54.824432	0.097616561	-62.660775	
3.91	0.023350107	-114.04248	0.054708524	-56.254428	0.054695928	-56.176228	0.095203834	-66.338828	
4.01	0.029531109	-102.38833	0.054679672	-57.578807	0.054610468	-57.634607	0.10759692	-68.183789	
4.11	0.031771657	-101.93306	0.054668521	-59.073616	0.054511398	-59.122616	0.11177145	-68.452502	
4.21	0.034364538	-101.39424	0.054584088	-60.434206	0.054552676	-60.519906	0.11282508	-68.871506	
4.31	0.037434801	-99.830747	0.054477073	-61.778533	0.054439455	-61.953333	0.11283629	-71.579119	
4.41	0.039535818	-98.22295	0.054479294	-63.217027	0.054353995	-63.378627	0.11994562	-73.305348	
4.51	0.04182309	-96.435577	0.054355926	-64.782458	0.054312138	-64.749158	0.12293972	-72.379788	
4.61	0.04420305	-95.188373	0.05427524	-66.159116	0.054231517	-66.156316	0.12347448	-72.554397	
4.71	0.046988701	-93.093219	0.054277339	-67.486192	0.054171211	-67.520492	0.12385395	-74.333801	
4.81	0.049136705	-91.264745	0.054242328	-68.922019	0.054148736	-68.929319	0.13101421	-75.093205	
4.91	0.051885432	-89.156666	0.054102861	-70.351707	0.054003291	-70.332407	0.13255101	-73.380417	
5.01	0.054001272	-87.149392	0.054012171	-71.706661	0.053956235	-71.772161	0.13181567	-73.851588	
5.11	0.056902969	-84.451449	0.05398707	-73.108952	0.053949789	-73.106252	0.13284347	-74.937856	
5.21	0.058753061	-82.22355	0.053984635	-74.506755	0.053866675	-74.560555	0.13868426	-75.397655	
5.31	0.061469528	-79.777177	0.053806671	-75.960642	0.053800477	-75.990342	0.13960839	-73.251845	
5.41	0.063811766	-76.977586	0.053783335	-77.402919	0.053727635	-77.284819	0.13809493	-74.094318	
5.51	0.066332418	-74.441572	0.05368405	-78.711166	0.053640803	-78.755666	0.14056672	-74.703909	
5.61	0.068780054	-71.306714	0.053618922	-80.139188	0.053501762	-80.207388	0.14528683	-74.542671	
5.71	0.070587817	-68.654946	0.053581315	-81.539457	0.053470392	-81.610457	0.14536334	-72.248889	
5.81	0.07324997	-65.383321	0.053509961	-82.934788	0.053386892	-82.919288	0.14288587	-72.815135	
5.91	0.074915097	-62.675526	0.053420335	-84.395195	0.053340441	-84.312495	0.14667428	-72.950824	
6.01	0.077367366	-59.50989	0.053343385	-85.71522	0.053324964	-85.76942	0.15021291	-71.669142	
6.11	0.079488512	-56.558825	0.053204898	-87.135251	0.053155917	-87.124551	0.14916859	-69.208176	
6.21	0.081921051	-52.812368	0.053125403	-88.492937	0.053070385	-88.553537	0.14558559	-69.474821	
6.31	0.08364709	-50.000535	0.053124752	-89.907278	0.053020878	-89.935078	0.14897497	-68.931285	
6.41	0.086210371	-46.309598	0.053009127	-91.296555	0.052929849	-91.282255	0.14987089	-66.957954	
6.51	0.087783813	-42.787905	0.05298933	-92.740893	0.052873545	-92.731293	0.147457	-64.392744	
6.61	0.089492942	-39.08265	0.052947872	-94.156945	0.052862599	-94.222345	0.14237184	-64.136588	
6.71	0.090878865	-35.928657	0.052977651	-95.609486	0.052813226	-95.589286	0.14403971	-63.465782	
6.81	0.092675358	-32.577779	0.052863982	-97.062199	0.052815314	-97.079699	0.14217888	-61.034532	
6.91	0.094203904	-29.041128	0.052808058	-98.509239	0.052710872	-98.526939	0.13813068	-59.052553	
7.01	0.095115653	-25.794437	0.052765352	-100.00435	0.052722845	-100.08005	0.13182996	-58.505951	
7.11	0.096381446	-22.556914	0.052740693	-101.45909	0.052661816	-101.48249	0.13245201	-58.376613	
7.21	0.096864236	-19.050348	0.052580919	-102.93676	0.05255671	-102.94846	0.12866185	-55.39254	
7.31	0.097929122	-15.468048	0.052665729	-104.36288	0.052568805	-104.30698	0.12214564	-54.402352	
7.41	0.098103929	-12.262034	0.052702367	-105.8166	0.052587208	-105.8855	0.11646585	-54.435458	
7.51	0.098847855	-8.698596	0.052696584	-107.22877	0.052557229	-107.33727	0.11533072	-54.48657	
7.61	0.098514197	-5.5194286	0.052606049	-108.84666	0.05253947	-108.80376	0.1112103	-51.509589	
7.71	0.098463529	-2.1073422	0.052678817	-110.3628	0.052563711	-110.3427	0.10326659	-50.960417	
7.81	0.097433533	1.0955901	0.05263087	-111.92434	0.052558208	-111.95714	0.097232637	-51.298648	
7.91	0.096925488	4.450361	0.052617709	-113.49127	0.052496692	-113.41707	0.094279966	-51.588602	
8.01	0.095949492	7.9126795	0.05256763	-115.07777	0.05248297	-115.06567	0.088136247	-48.622984	
8.11	0.09414668	11.419696	0.052574417	-116.6023	0.052429349	-116.657	0.078618642	-49.227372	
8.21	0.092161356	14.868612	0.052606402	-118.20007	0.052382787	-118.22707	0.071847088	-50.782926	
8.31	0.090223387	18.692904	0.052574827	-119.82177	0.052459948	-119.74437	0.067272657	-51.654471	
8.41	0.087855904	22.588459	0.052533605	-121.32629	0.052394682	-121.29859	0.059398651	-49.295697	
8.51	0.085020268	26.740472	0.052519663	-123.05372	0.052483396	-123.04142	0.048237134	-53.328061	
8.61	0.082033361	30.951125	0.05259619	-124.67653	0.052445023	-124.67943	0.041893242	-60.822797	
8.71	0.078909514	35.814724	0.052560179	-126.24785	0.052481572	-126.27955	0.036509545	-66.861443	
8.81	0.075364885	41.051617	0.052501537	-127.83597	0.052386818	-127.90057	0.027885463	-73.414069	
8.91	0.071282558	46.460616	0.052573479	-129.55882	0.052525079	-129.66462	0.023300206	-102.68846	
9.01	0.067647057	51.78886	0.052577352	-131.30645	0.052492676	-131.28465	0.026782539	-121.7637	
9.11	0.065255262	58.698454	0.05256925	-132.93606	0.052478544	-132.98766	0.031591516	-136.79716	
9.21	0.061361701	66.404386	0.052526456	-134.68041	0.052447899	-134.70851	0.035492874	-148.56266	
9.31	0.05973296	74.06225	0.052525539	-136.50035	0.052410768	-136.45395	0.047263549	-160.3937	
9.41	0.058042492	84.014777	0.052421373	-138.24035	0.052330923	-138.29865	0.057117016	-159.34172	
9.51	0.057493613	92.913088	0.052129935	-139.83655	0.052063959	-139.97105	0.063035899	-163.52947	
9.61	0.057703852	102.21183	0.052050908	-141.38415	0.051907284	-141.44055	0.073552104	-166.34901	
9.71	0.058050258	111.85369	0.05199255	-143.04144	0.051884916	-142.99404	0.084676705	-167.20771	
9.81	0.05946184	120.93754	0.051842484	-144.60015	0.051758991	-144.61765	0.093785637	-166.30062	
9.91	0.062116346	129.16343	0.051645132	-146.0629	0.051502628	-146.0978	0.10024792	-167.48034	
10.01	0.065331961	136.64618	0.051651618	-147.64082	0.051509096	-147.65722	0.11084106	-168.63645	
10.11	0.069989602	144.1414	0.051484963	-149.22313	0.051360638	-149.32293	0.1219455	-168.32366	
10.21	0.074323617	150.54959	0.051306839	-150.65072	0.05117116	-150.77902	0.13030013	-166.75462	
10.31	0.079724906	156.86203	0.051112134	-152.17135	0.050994579	-152.23725	0.1357494	-167.20525	
10.41	0.084563297	161.30863	0.05097587	-153.54218	0.050899633	-153.54298	0.14659562	-167.37053	
10.51	0.091121571	165.93823	0.050962015	-154.88181	0.050868226	-154.95031	0.15681868	-166.4626	
10.61	0.09698901	170.26039	0.050982675	-156.2598	0.050877132	-156.3382	0.16385548	-165.15454	
10.71	0.10266869	174.06234	0.050859255	-157.85272	0.050800735	-157.89212	0.1693653	-165.44025	
10.81	0.10866591	177.26798	0.050888521	-159.37362	0.050824115	-159.42672	0.17975353	-165.16564	
10.91	0.11436715	-179.6037	0.050825226	-160.8222	0.05077259	-160.9013	0.18714637	-163.87388	
11.01	0.12038099	-177.14449	0.050697934	-162.35898	0.050686262	-162.30588	0.1920186	-162.87798	
11.11	0.12577326	-174.34251	0.050633087	-163.79591	0.050528268	-163.81921	0.19594717	-162.85909	
11.21	0.13076666	-172.34076	0.050582825	-165.27101	0.050524623	-165.21811	0.20356823	-162.55079	
11.31	0.13561957	-170.48249	0.050608935	-166.75485	0.050527429	-166.72685	0.20858094	-161.43105	
11.41	0.14086733	-168.92511	0.050415949	-168.16826	0.050334754	-168.08536	0.2111788	-160.57655	
11.51	0.14551975	-167.14495	0.050399059	-169.59382	0.050352661	-169.59132	0.21262967	-160.83162	
11.61	0.14988526	-166.0069	0.050291036	-171.165	0.050221604	-171.1649	0.21939973	-161.02418	
11.71	0.15414429	-164.71938	0.050154545	-172.56131	0.050073771	-172.59581	0.22190695	-160.15934	
11.81	0.15813899	-163.7823	0.05006601	-174.06656	0.050008403	-174.04166	0.22361928	-160.33117	
11.91	0.16242138	-162.92097	0.049960573	-175.44991	0.049851406	-175.58251	0.22569489	-160.6065	
12.01	0.16625856	-162.20197	0.049873141	-177.0475	0.049838701	-177.0515	0.23076602	-160.92018	
12.11	0.17041443	-161.6495	0.049742849	-178.56869	0.049714223	-178.47519	0.23264082	-160.33246	
12.21	0.17461503	-161.25717	0.049680848	-179.97981	0.049566586	179.92349	0.23369356	-160.98819	
12.31	0.17879306	-161.03512	0.049459819	178.3459	0.049488299	178.3944	0.23705581	-161.45492	
12.41	0.18273787	-161.1712	0.049272616	176.67339	0.049136659	176.58219	0.24255201	-161.92047	
12.51	0.18556493	-161.36264	0.048789451	175.19231	0.048570875	175.13531	0.24447711	-161.36708	
12.61	0.1882767	-161.20655	0.048435936	174.1331	0.048285608	174.0996	0.2454261	-162.37184	
12.71	0.19257535	-160.54587	0.048380033	173.04756	0.048274319	173.01386	0.25103709	-162.83096	
12.81	0.19685979	-160.30764	0.048389006	171.73635	0.048350025	171.75135	0.25582511	-163.12298	
12.91	0.20238916	-160.07402	0.048470799	170.31549	0.048353752	170.26289	0.25902557	-162.80348	
13.01	0.20719396	-160.06616	0.048416198	168.8384	0.048315968	168.8404	0.26130779	-163.61574	
13.11	0.21329554	-160.1367	0.048276776	167.29356	0.048237885	167.32716	0.26738979	-164.05507	
13.21	0.2189784	-160.06379	0.048272756	165.77052	0.048200561	165.80772	0.27195587	-164.23432	
13.31	0.22431845	-160.14403	0.048025205	164.25528	0.047903719	164.25358	0.27631653	-164.18103	
13.41	0.23040538	-160.18369	0.047839645	162.94932	0.047713134	162.97542	0.27977989	-164.76766	
13.51	0.23703764	-160.06597	0.047653742	161.61859	0.04759891	161.55859	0.28739502	-165.05557	
13.61	0.24368184	-160.07651	0.047642194	160.19291	0.047472461	160.13761	0.29330517	-164.91331	
13.71	0.25160677	-160.03304	0.047554409	158.79752	0.047477822	158.72272	0.2981474	-164.74863	
13.81	0.25903828	-159.69629	0.047421241	157.30755	0.047235978	157.32265	0.30344092	-165.12334	
13.91	0.26641391	-159.55593	0.047195596	155.91571	0.047108739	155.90991	0.31269505	-164.87776	
14.01	0.27492464	-159.37069	0.047081979	154.42319	0.046865657	154.44079	0.31786731	-164.33955	
14.11	0.28279978	-158.87509	0.046861487	153.0498	0.04676986	153.0715	0.32453462	-163.99677	
14.21	0.29021139	-158.48301	0.046705153	151.69142	0.046581643	151.73282	0.33046638	-163.80948	
14.31	0.29894262	-158.02998	0.046494691	150.366	0.046393097	150.3959	0.33980508	-163.15407	
14.41	0.30715514	-157.43619	0.046287775	148.99691	0.04622387	149.02271	0.34419668	-162.28088	
14.51	0.31572556	-156.79681	0.046085857	147.71638	0.046054033	147.67538	0.35082983	-161.78952	
14.61	0.32398148	-156.07535	0.046004009	146.36405	0.04584539	146.34065	0.35628253	-161.05506	
14.71	0.3319307	-155.25372	0.045797783	145.08712	0.045629368	145.08882	0.36484514	-160.20006	
14.81	0.33963606	-154.56033	0.045617186	143.78776	0.04557519	143.77336	0.36890309	-158.87092	
14.91	0.34787452	-153.54163	0.045419701	142.49908	0.045237049	142.44928	0.3738146	-158.22257	
15.01	0.35419333	-152.64836	0.045189599	141.11514	0.045080475	141.20144	0.37900679	-157.14993	
15.11	0.36056043	-151.73559	0.044933388	140.07766	0.044892022	140.08396	0.38532217	-156.16863	
15.21	0.36680984	-150.76986	0.044760363	139.06384	0.044641996	139.03224	0.38882488	-154.57243	
15.31	0.3728797	-149.72985	0.044783296	138.02849	0.044690586	137.98089	0.39220273	-153.79679	
15.41	0.37792058	-148.75059	0.044693986	136.7801	0.044709426	136.8198	0.39708881	-152.42343	
15.51	0.38260371	-147.69701	0.044671347	135.5144	0.0446405	135.6522	0.40043289	-151.19488	
15.61	0.38497904	-146.53085	0.044687627	134.23828	0.044579716	134.23548	0.40209548	-149.56537	
15.71	0.38646025	-145.37122	0.044393909	133.04224	0.044342828	133.10484	0.40258208	-148.67557	
15.81	0.38965913	-143.96036	0.044316341	132.14938	0.044178798	132.11068	0.40651862	-147.29473	
15.91	0.39250071	-142.77812	0.044385072	130.94459	0.044298286	131.04089	0.40666882	-145.81734	
16.01	0.39266182	-141.60701	0.044345044	129.73286	0.044304219	129.82816	0.40590852	-144.35645	
16.11	0.39108856	-140.29527	0.044234752	128.42543	0.044188941	128.53663	0.4041565	-143.33457	
16.21	0.39007957	-138.65036	0.043971045	127.52926	0.043885069	127.51806	0.40570071	-141.93959	
16.31	0.3915231	-136.97436	0.043835202	126.8155	0.043840249	126.8145	0.40230192	-140.37265	
16.41	0.39199282	-135.55809	0.044154799	126.01166	0.043992426	126.01246	0.39830354	-139.21476	
16.51	0.39078791	-134.46807	0.044414442	125.15316	0.044378662	125.11936	0.39292833	-138.16261	
16.61	0.38849745	-133.61522	0.044775619	124.05491	0.044693215	124.14511	0.38978105	-137.19794	
16.71	0.38492054	-132.71691	0.045100396	123.02513	0.045048502	122.92053	0.38409508	-135.87736	
16.81	0.37820695	-131.92499	0.045777106	121.85282	0.045624522	121.82182	0.37640985	-134.86824	
16.91	0.37208197	-131.15883	0.046291294	120.16427	0.046216741	120.21817	0.36841081	-134.10289	
17.01	0.36286467	-130.57555	0.046654052	118.52164	0.046605735	118.48934	0.36107312	-133.42125	
17.11	0.35278342	-130.23655	0.046983654	117.02622	0.046913387	117.04632	0.3510186	-132.50951	
17.21	0.34003863	-130.23845	0.047467553	115.48142	0.047352929	115.41002	0.33958034	-131.90364	
17.31	0.3248356	-130.27526	0.04797819	113.72588	0.047867842	113.74478	0.32681415	-131.70806	
17.41	0.3052869	-130.46108	0.048653412	111.89451	0.048452182	111.92751	0.31523303	-131.55652	
17.51	0.28330801	-130.3101	0.049054693	109.87385	0.049026461	109.75656	0.29899491	-131.5961	
17.61	0.26134946	-129.38105	0.049669883	107.58924	0.049544236	107.64524	0.28392814	-132.29303	
17.71	0.2428722	-128.51647	0.050375955	105.29013	0.050213823	105.36893	0.26731705	-133.17926	
17.81	0.22180525	-129.52437	0.050899004	102.32926	0.050799482	102.38426	0.2522164	-134.33266	
17.91	0.19783846	-129.44405	0.050569668	98.993032	0.050558025	99.012432	0.23110224	-135.53823	
18.01	0.17742137	-127.45435	0.049785645	96.629064	0.049722635	96.55687	0.21258258	-139.12493	
18.11	0.16621189	-128.11655	0.049353422	94.947228	0.049307988	94.970333	0.19444944	-142.01971	
18.21	0.15468575	-132.56706	0.049634023	93.188175	0.04946289	93.300777	0.1755486	-147.93187	
18.31	0.13905173	-139.6301	0.049843274	91.067783	0.049648552	91.063583	0.1575794	-153.66418	
18.41	0.12119766	-150.4042	0.050190635	88.812561	0.049977289	88.871661	0.14288667	-165.04769	
18.51	0.10574697	-163.34301	0.050715249	86.841942	0.050534569	86.861342	0.13932173	-174.15427	
18.61	0.10041211	-178.76263	0.051470054	84.21326	0.051458204	84.16276	0.13405941	174.18877	
18.71	0.10474945	166.14796	0.052082417	81.178077	0.051998538	81.044077	0.13654687	162.68079	
18.81	0.11843813	148.34472	0.052243855	77.502404	0.052141705	77.498308	0.14644057	148.93121	
18.91	0.14221895	135.26818	0.052163682	74.204605	0.052079672	74.19131	0.16694979	140.74599	
19.01	0.16535711	125.30807	0.051904631	71.126563	0.051707806	71.039967	0.18419618	133.02467	
19.11	0.18682832	117.20413	0.051338153	68.225281	0.051296791	68.174287	0.20806683	127.60418	
19.21	0.21039047	113.94184	0.051356583	65.269736	0.05128568	65.260436	0.23084366	123.01105	
19.31	0.23621206	112.50387	0.051213028	61.914275	0.05105408	62.022375	0.25909154	119.58751	
19.41	0.26623923	111.22796	0.050742273	58.630013	0.050631398	58.716713	0.28352983	116.95045	
19.51	0.29689923	109.57313	0.049917791	55.332635	0.049946534	55.310135	0.31066279	114.91878	
19.61	0.32752651	108.19667	0.048978869	52.22201	0.048950676	52.257607	0.33607839	113.81027	
19.71	0.35491818	106.90391	0.047792829	49.488416	0.047781825	49.464016	0.35885366	113.06473	
19.81	0.38041607	105.71097	0.046684389	47.25091	0.046523431	47.152217	0.38081944	111.92067	
19.91	0.39969751	105.44764	0.045823321	45.139762	0.04579168	45.197962	0.40548973	111.37873	
20.01	0.41761694	105.87608	0.04510677	43.118934	0.045117158	43.125134	0.4280502	111.31844	
