!
! Hittite Microwave Corporation
! 2 Elizabeth Drive
! Chelmsford, MA 01824
! http://www.hittite.com
! Tel: 978-250-3343
! Fax: 978-250-3373
! 
! Device:      HMC424LP3
! Description: 0.5 dB GaAs MMIC 6-Bit Digital Attenuator
! Frequency:    DC -  13.00 GHz
! Package:     LP3  - 3x3 mm Quad Flatpack No-Lead (QFN) Plastic Package: 16 pin
! Ports:       2 RF, 7 DC
!              Pad  1  = Ground
!              Pad  2  = RF IN   = Port 1
!              Pad  3  = Ground
!              Pad  4  = V6
!              Pad  5  = V5
!              Pad  6  = V4
!              Pad  7  = V3
!              Pad  8  = V2
!              Pad  9  = V1
!              Pad 10  = Ground
!              Pad 11  = RF OUT  = Port 2
!              Pad 12  = Ground
!              Pad 15  = VEE
!
! Control:     -5 Volt control voltage
! State:        43 
! Attenuation:  21.5 dB
! Voltages:    Vdd = -5.00 Volts  Idd =  -2.519 mA
!              V1  = -5.00 Volts  I1  =  -1.0 uA
!              V2  = -5.00 Volts  I2  =  -1.0 uA
!              V3  = 0.00 Volts  I3  =  30.0 uA
!              V4  = -5.00 Volts  I4  =  -1.0 uA
!              V5  = 0.00 Volts  I5  =  29.0 uA
!              V6  = -5.00 Volts  I6  =  -1.0 uA
!
! Data:    The device was measured on evaluation board 105354-1. 
!          Data was collected using a calibrated network analyzer.
!          The evaluation circuit board was modeled and simulated.  This was use
!          to removed the evaluation board circuit from the measured data.
!          The reference plane is the edge of the package pin.
!
! Misc:    Lot xxxx, Unit 1
!          Application 20120001, Data collected in Application 20090083
!
! Date Measured:  2009-09-15
! Date:           2012-05-14  MJV
! Note: 
!   Hittite supplies this data as a sample of measured data at the package pin
!   for this product.  Your particular data for this product may vary.
!   Data was taken at 25 degrees C.
!   Hittite reserves the right to change this data at anytime.
!
# GHz S MA R 50

0.01	0.01352792	151.39459	0.063432776	-1.3020787	0.063593645	-1.7570787	0.044944994	8.7566624	
0.11	0.015103114	-176.00903	0.063361533	-2.1904484	0.063339653	-2.2108484	0.040987751	0.61265293	
0.21	0.014689429	-172.17692	0.063233406	-3.6158642	0.062841504	-3.6376642	0.040083759	-7.6146634	
0.31	0.013259691	-168.10773	0.062943535	-5.0584026	0.062907312	-5.1064026	0.045307874	-10.040027	
0.41	0.012970973	-162.45578	0.062976955	-6.5522726	0.062976955	-6.6112726	0.046075876	-10.819091	
0.51	0.012019378	-154.01407	0.062856617	-8.0697996	0.062834911	-8.1140996	0.045223264	-12.929778	
0.61	0.012215465	-145.46554	0.062828452	-9.5042111	0.062799525	-9.5394111	0.046581636	-19.467481	
0.71	0.011691982	-131.9837	0.062834362	-10.967996	0.062711503	-11.016896	0.052992413	-20.976603	
0.81	0.011673606	-122.63349	0.062770092	-12.407432	0.062568071	-12.425632	0.052877082	-19.863907	
0.91	0.011966368	-109.00092	0.062674377	-13.96581	0.062580644	-13.92651	0.054149163	-24.656577	
1.01	0.012192368	-100.04741	0.062585107	-15.317747	0.06252749	-15.334947	0.057567345	-27.88321	
1.11	0.013615151	-91.384951	0.062580389	-16.745925	0.062486796	-16.784925	0.064141935	-27.280644	
1.21	0.014215738	-83.820755	0.062479216	-18.202066	0.062407325	-18.221766	0.062847572	-25.710965	
1.31	0.015755436	-77.308729	0.062445838	-19.699956	0.062359625	-19.668456	0.065262355	-30.322354	
1.41	0.016706344	-70.489587	0.06241845	-21.107286	0.0623251	-21.139786	0.069939929	-30.777246	
1.51	0.017962992	-67.419742	0.0623408	-22.597075	0.062269069	-22.556575	0.073947917	-29.498125	
1.61	0.019460315	-61.902194	0.062244834	-24.001865	0.062223339	-23.990165	0.072056619	-28.443977	
1.71	0.020433563	-59.054119	0.062246334	-25.38527	0.062074578	-25.45927	0.073858526	-32.769152	
1.81	0.021759585	-55.868884	0.062267049	-26.798923	0.062109536	-26.796423	0.078188662	-32.342837	
1.91	0.022108687	-53.739931	0.062182956	-28.188296	0.061989961	-28.258896	0.079429088	-31.771345	
2.01	0.022860715	-52.027831	0.062022626	-29.646462	0.062029767	-29.745662	0.077211555	-31.918757	
2.11	0.023258536	-51.516807	0.06206692	-31.069113	0.061881409	-31.124813	0.079146019	-36.307993	
2.21	0.023910792	-51.714733	0.062001047	-32.463493	0.061758824	-32.549193	0.083631757	-35.868162	
2.31	0.024515536	-51.278944	0.062025045	-33.971016	0.06183254	-33.965416	0.082824508	-35.700178	
2.41	0.024758393	-52.489072	0.061915145	-35.400461	0.061730088	-35.398061	0.081066413	-37.5089	
2.51	0.025032458	-53.455773	0.061859304	-36.808492	0.061702822	-36.831292	0.083733857	-41.629069	
2.61	0.024951997	-55.026015	0.061849666	-38.142692	0.061764277	-38.187592	0.087722835	-40.989353	
2.71	0.025534982	-57.410773	0.06174559	-39.681493	0.061710056	-39.659993	0.085491382	-41.645026	
2.81	0.025015419	-60.246168	0.061684408	-41.049894	0.061627621	-41.055894	0.084801162	-44.413736	
2.91	0.025994278	-63.093022	0.061647408	-42.375382	0.061533953	-42.517882	0.088035585	-47.792529	
3.01	0.026059241	-67.02265	0.061594249	-43.955241	0.061473814	-43.961641	0.091371893	-47.056516	
3.11	0.027016521	-70.525896	0.061589046	-45.313359	0.061397895	-45.324359	0.088020983	-48.218164	
3.21	0.027308059	-74.361961	0.061426261	-46.829256	0.061383843	-46.745656	0.088470351	-51.943463	
3.31	0.028415922	-78.765445	0.061407072	-48.197141	0.061301117	-48.203541	0.091745318	-54.412889	
3.41	0.029566049	-82.940485	0.061428435	-49.634245	0.061280098	-49.636045	0.093938798	-54.110377	
3.51	0.031284217	-86.954498	0.06130003	-51.023489	0.061229496	-51.092989	0.09041792	-56.421301	
3.61	0.033115372	-90.89861	0.061244767	-52.433728	0.061174297	-52.463828	0.092850736	-60.766148	
3.71	0.035624613	-93.674856	0.061149243	-53.883892	0.060973495	-53.882192	0.096753188	-62.50966	
3.81	0.038043302	-96.255085	0.06103323	-55.38358	0.061054314	-55.35308	0.097746441	-62.747455	
3.91	0.040662228	-98.579136	0.061035148	-56.666669	0.06093685	-56.698269	0.095382715	-66.334211	
4.01	0.048056637	-94.443606	0.061016135	-58.080914	0.061002087	-58.083914	0.10774367	-68.175911	
4.11	0.050408238	-95.206316	0.060946295	-59.476212	0.060862152	-59.551412	0.11209119	-68.487549	
4.21	0.053223719	-95.919452	0.060830025	-60.975088	0.060858045	-60.992988	0.1130893	-68.86052	
4.31	0.056259961	-95.916358	0.060864172	-62.423542	0.060752159	-62.363142	0.1129404	-71.57903	
4.41	0.058492235	-95.538559	0.060718496	-63.800641	0.060725487	-63.784441	0.12012145	-73.309429	
4.51	0.06098777	-95.194738	0.060684779	-65.245396	0.060621933	-65.207396	0.12317145	-72.349642	
4.61	0.063433019	-94.88649	0.060607743	-66.578319	0.060447468	-66.678019	0.12372198	-72.535829	
4.71	0.066179097	-93.966638	0.060553706	-67.981266	0.060449224	-68.009266	0.12411113	-74.316042	
4.81	0.06816367	-93.222506	0.060452214	-69.475937	0.060375705	-69.444037	0.1311635	-75.118371	
4.91	0.070666033	-92.080046	0.060345211	-70.864936	0.060227219	-70.898736	0.13279066	-73.381426	
5.01	0.072561729	-91.079437	0.060258714	-72.253407	0.06023097	-72.270607	0.13200062	-73.879254	
5.11	0.075098014	-89.307155	0.060280307	-73.569425	0.060113976	-73.615925	0.1329098	-74.984609	
5.21	0.076507597	-88.008405	0.060174667	-74.989145	0.06009159	-75.057445	0.13892094	-75.416972	
5.31	0.078768315	-86.350948	0.060075086	-76.516365	0.060026691	-76.488865	0.13975795	-73.299257	
5.41	0.080286909	-84.394907	0.059996487	-77.818033	0.059934353	-77.926433	0.1381471	-74.077801	
5.51	0.082145744	-82.556699	0.059922797	-79.277328	0.059846958	-79.246828	0.14073885	-74.685149	
5.61	0.083667173	-80.150956	0.059812348	-80.6681	0.059743526	-80.6782	0.14542137	-74.506361	
5.71	0.084578213	-78.153975	0.059754027	-82.192051	0.059664661	-82.079351	0.14551223	-72.226141	
5.81	0.085940931	-75.44194	0.059645377	-83.441059	0.059576747	-83.512459	0.14305702	-72.809908	
5.91	0.086554079	-73.2339	0.059619546	-84.848292	0.05960582	-84.904292	0.14685624	-72.9772	
6.01	0.087670831	-70.555895	0.059601707	-86.249265	0.059492018	-86.360965	0.15035735	-71.656955	
6.11	0.088395531	-67.896118	0.059460732	-87.717105	0.059392315	-87.666105	0.14930718	-69.229838	
6.21	0.089178665	-64.45495	0.059419913	-89.063264	0.059228675	-89.046564	0.14576858	-69.481772	
6.31	0.089430342	-61.909126	0.059359441	-90.488938	0.059263842	-90.481238	0.14916857	-68.976022	
6.41	0.090068435	-58.263502	0.059272893	-91.851868	0.059184247	-91.938968	0.15002358	-66.976533	
6.51	0.089999774	-54.805074	0.059217859	-93.290003	0.059170154	-93.327703	0.14767446	-64.431563	
6.61	0.089837929	-51.157413	0.059228652	-94.684155	0.059112843	-94.766555	0.14260818	-64.164278	
6.71	0.089482206	-47.841172	0.059250478	-96.138735	0.059134627	-96.156435	0.14434043	-63.492298	
6.81	0.089503029	-44.29906	0.059174925	-97.633325	0.059011645	-97.659625	0.14229842	-61.075525	
6.91	0.089104376	-40.372486	0.059033779	-99.115709	0.059047373	-99.124409	0.13833009	-59.121062	
7.01	0.08827265	-36.773884	0.059091465	-100.57227	0.058996297	-100.60487	0.13199039	-58.586706	
7.11	0.087827925	-32.952587	0.05899852	-102.11505	0.05893742	-102.03335	0.13260094	-58.448532	
7.21	0.08669122	-28.941986	0.058923674	-103.48619	0.058828777	-103.49799	0.12876257	-55.430986	
7.31	0.08606787	-24.606269	0.05893317	-105.01012	0.058811168	-105.01812	0.12237946	-54.482828	
7.41	0.084912754	-20.544396	0.058981234	-106.50665	0.058886244	-106.47645	0.11661297	-54.461755	
7.51	0.084228047	-16.119589	0.058936723	-107.98175	0.058855355	-107.97995	0.1154964	-54.5589	
7.61	0.082908612	-12.09988	0.058903715	-109.53081	0.05880885	-109.51221	0.1113159	-51.630633	
7.71	0.08183236	-7.6059574	0.058971416	-111.04598	0.058862886	-111.11788	0.10324546	-51.067044	
7.81	0.079959558	-3.333147	0.058956685	-112.63258	0.058814317	-112.66938	0.097328257	-51.384754	
7.91	0.078824637	1.1450033	0.058940441	-114.26425	0.058879401	-114.26925	0.094323997	-51.708888	
8.01	0.077384436	5.9547332	0.058881328	-115.85139	0.058888108	-115.86599	0.088284677	-48.806691	
8.11	0.075368678	10.746738	0.058884898	-117.42849	0.058823915	-117.42239	0.078671576	-49.435204	
8.21	0.073379401	15.704157	0.058900703	-119.04123	0.058731416	-119.05713	0.072047048	-50.979614	
8.31	0.071732025	21.068805	0.058831282	-120.62359	0.058756824	-120.66719	0.067342278	-51.854682	
8.41	0.069771096	26.666567	0.058859465	-122.20705	0.058784972	-122.18615	0.059392317	-49.527628	
8.51	0.067831311	32.681825	0.05894934	-123.92533	0.05880022	-123.88303	0.048264194	-53.666881	
8.61	0.066019442	38.68716	0.058907215	-125.46293	0.058778499	-125.55533	0.041937119	-61.052042	
8.71	0.064466319	45.582643	0.058862316	-127.16988	0.058726937	-127.17968	0.036610936	-67.283634	
8.81	0.062734664	52.79698	0.058824963	-128.82819	0.058757277	-128.84959	0.028051549	-73.965027	
8.91	0.060994902	60.270837	0.058888711	-130.52195	0.058827724	-130.56865	0.023501676	-102.77603	
9.01	0.059855458	67.460338	0.058938346	-132.26237	0.058802792	-132.26777	0.026957237	-122.03037	
9.11	0.060466031	75.599177	0.05886639	-133.91919	0.058771585	-133.99719	0.031890998	-136.80125	
9.21	0.060084924	84.396163	0.058886405	-135.63215	0.05875097	-135.66725	0.035696307	-148.69532	
9.31	0.061833522	92.065805	0.058819909	-137.44724	0.058718418	-137.43294	0.047594981	-160.44489	
9.41	0.064082233	101.13879	0.058709751	-139.25252	0.058601703	-139.22592	0.057359339	-159.18324	
9.51	0.066788338	108.41053	0.058400652	-140.82866	0.058293174	-140.91566	0.063199769	-163.47728	
9.61	0.069916835	115.63211	0.058224471	-142.50182	0.058090559	-142.39592	0.073727666	-166.3243	
9.71	0.072672201	122.61215	0.058183562	-144.00476	0.058056427	-144.02656	0.084992633	-167.22596	
9.81	0.076051123	128.90654	0.057938085	-145.70001	0.057778217	-145.71401	0.093929525	-166.22958	
9.91	0.07995611	134.66782	0.057809061	-147.0316	0.057676104	-147.0528	0.10044339	-167.52701	
10.01	0.083978685	139.82469	0.057811237	-148.67444	0.057711487	-148.73164	0.1113042	-168.56488	
10.11	0.089040742	145.03069	0.057592145	-150.30417	0.057439844	-150.29617	0.12221751	-168.34658	
10.21	0.093398012	149.64178	0.057490629	-151.83439	0.057279215	-151.84399	0.13060398	-166.75311	
10.31	0.098396357	154.35192	0.057222594	-153.2337	0.057104133	-153.2163	0.13595128	-167.24661	
10.41	0.10287384	157.73055	0.057095849	-154.69717	0.056918642	-154.68457	0.14678249	-167.36089	
10.51	0.10858924	161.42094	0.057051496	-156.01994	0.056926834	-156.00644	0.15697502	-166.48818	
10.61	0.11338157	165.04125	0.057049402	-157.50837	0.056924746	-157.43427	0.16414335	-165.18963	
10.71	0.11816672	168.19674	0.056974657	-158.93629	0.056856709	-158.94199	0.16958318	-165.4868	
10.81	0.12311774	171.02123	0.056982857	-160.45631	0.056858346	-160.50061	0.17994435	-165.18269	
10.91	0.12756637	173.82056	0.056920453	-161.97424	0.05678954	-161.93774	0.18740033	-163.88573	
11.01	0.13240194	176.07197	0.056784549	-163.39696	0.056706152	-163.54726	0.19209333	-162.9149	
11.11	0.13650755	178.73413	0.056704934	-164.89838	0.05649641	-164.92218	0.19603486	-162.84879	
11.21	0.14013174	-179.37145	0.056567473	-166.32652	0.056476371	-166.35032	0.20372487	-162.55561	
11.31	0.14400766	-177.49684	0.056524826	-167.8196	0.05644029	-167.9159	0.20879378	-161.46389	
11.41	0.1482052	-175.92282	0.056463578	-169.34412	0.056353176	-169.26992	0.21122498	-160.63571	
11.51	0.15148369	-174.16847	0.056388034	-170.70699	0.056316668	-170.72799	0.2128463	-160.85727	
11.61	0.1545779	-172.94886	0.056264915	-172.20141	0.056122585	-172.21531	0.2194693	-161.01295	
11.71	0.15795386	-171.58382	0.056204248	-173.66071	0.056042712	-173.73341	0.22197556	-160.21473	
11.81	0.16111117	-170.57209	0.056117457	-175.13202	0.05601418	-175.09952	0.22367377	-160.35229	
11.91	0.16413709	-169.58172	0.055974218	-176.6042	0.055845481	-176.6768	0.22560039	-160.62093	
12.01	0.16734608	-168.79173	0.055939137	-178.18737	0.05576552	-178.21147	0.23093071	-160.96676	
12.11	0.17037766	-168.03735	0.055702637	-179.62245	0.055664172	-179.67585	0.23270103	-160.34477	
12.21	0.17371658	-167.51846	0.05570715	178.83487	0.055540648	178.93037	0.23376914	-160.99414	
12.31	0.17708963	-167.14244	0.055463692	177.2142	0.055463692	177.1603	0.23718281	-161.47738	
12.41	0.18018306	-167.16133	0.055270786	175.50121	0.055111933	175.48551	0.24279936	-161.97918	
12.51	0.18232491	-167.22392	0.054732458	174.05075	0.05458772	173.99895	0.24456449	-161.38716	
12.61	0.18424637	-166.9314	0.05436334	172.99669	0.054275787	172.96179	0.24566348	-162.40477	
12.71	0.18770704	-166.07639	0.054311839	171.80313	0.054224369	171.80283	0.2511098	-162.84543	
12.81	0.19123074	-165.64643	0.054414259	170.54353	0.05428286	170.45393	0.25589002	-163.15367	
12.91	0.19591282	-165.1988	0.05439927	169.09158	0.054267907	169.00208	0.25915674	-162.84215	
13.01	0.19999277	-164.97649	0.054446314	167.55347	0.054271082	167.59117	0.26145059	-163.64835	
13.11	0.20551298	-164.85328	0.054309911	166.05758	0.05419748	166.10698	0.26752069	-164.06647	
13.21	0.21054644	-164.60338	0.05414515	164.53015	0.054089076	164.45585	0.27206859	-164.23884	
13.31	0.21515392	-164.46668	0.054026933	162.96326	0.053859251	162.90106	0.2764308	-164.20227	
13.41	0.22083599	-164.34034	0.053758871	161.65841	0.053610535	161.65871	0.27985234	-164.77457	
13.51	0.22663022	-163.97065	0.053679149	160.27105	0.053494068	160.28705	0.28758428	-165.06353	
13.61	0.23271728	-163.78592	0.053535812	158.8165	0.053486527	158.8183	0.29337757	-164.91806	
13.71	0.24005781	-163.4902	0.053441978	157.41819	0.053319065	157.35239	0.29831919	-164.75941	
13.81	0.2468428	-162.93957	0.053285369	155.89729	0.053224057	155.92549	0.3036167	-165.11686	
13.91	0.2536405	-162.60458	0.053085848	154.46996	0.052975951	154.48696	0.31282008	-164.88501	
14.01	0.26163953	-162.18763	0.052906512	152.9916	0.05283347	153.1148	0.31814839	-164.34672	
14.11	0.2690136	-161.47309	0.052790872	151.57225	0.052620968	151.60785	0.32466275	-163.99751	
14.21	0.27590484	-160.88114	0.052514995	150.19551	0.052406279	150.21471	0.33060189	-163.81149	
14.31	0.28416699	-160.2551	0.052316043	148.8891	0.052165682	148.9286	0.33997118	-163.16028	
14.41	0.29190124	-159.44212	0.05215181	147.53225	0.052043846	147.47205	0.34418717	-162.29881	
14.51	0.29994576	-158.59705	0.052007823	146.14482	0.051846408	146.13122	0.35088956	-161.79791	
14.61	0.30794255	-157.67307	0.051805197	144.82311	0.051662252	144.81761	0.35627181	-161.05172	
14.71	0.3154691	-156.68658	0.051556752	143.47519	0.051485573	143.44419	0.36502608	-160.21626	
14.81	0.32299068	-155.82402	0.051377619	142.11695	0.051288969	142.14615	0.36894251	-158.87639	
14.91	0.33067886	-154.63853	0.051184969	140.74151	0.051090769	140.83351	0.37393896	-158.22673	
15.01	0.33690627	-153.5689	0.050908048	139.59676	0.050861181	139.44806	0.37925581	-157.14986	
15.11	0.34301751	-152.49839	0.050627695	138.41624	0.050569441	138.40814	0.38549367	-156.19687	
15.21	0.3490303	-151.36485	0.050518163	137.3364	0.050343981	137.304	0.38900809	-154.58808	
15.31	0.35502216	-150.17798	0.050454012	136.2355	0.05040176	136.1818	0.39228924	-153.81695	
15.41	0.3600139	-149.06728	0.050486074	134.88167	0.050352566	134.98507	0.39727016	-152.43547	
15.51	0.36454848	-147.88164	0.050378846	133.72204	0.050309293	133.64104	0.40058334	-151.2078	
15.61	0.36684356	-146.54641	0.050271793	132.45555	0.050161946	132.29115	0.40216108	-149.58218	
15.71	0.36822713	-145.26917	0.050060258	131.22517	0.049904888	131.09027	0.40259303	-148.71724	
15.81	0.37169082	-143.70312	0.049938587	130.1826	0.049840943	130.0913	0.40670487	-147.32025	
15.91	0.37454933	-142.40232	0.049951716	128.95835	0.049934466	129.03865	0.40678391	-145.84998	
16.01	0.37481925	-141.10299	0.050033837	127.7186	0.049890035	127.7375	0.40601999	-144.37818	
16.11	0.37325946	-139.63955	0.049824908	126.36064	0.049733211	126.30834	0.4042213	-143.37568	
16.21	0.37258096	-137.82426	0.049422648	125.4138	0.049394206	125.3247	0.40584715	-141.99209	
16.31	0.37445147	-135.98435	0.049406785	124.66542	0.049366984	124.62552	0.40242718	-140.41779	
16.41	0.37517013	-134.43861	0.04963785	123.75564	0.049500885	123.86624	0.39847405	-139.25954	
16.51	0.37445378	-133.21464	0.05002278	122.77855	0.049913477	122.72555	0.39292903	-138.21936	
16.61	0.37231207	-132.2762	0.050375604	121.69712	0.050323434	121.72602	0.38976138	-137.25678	
16.71	0.36911538	-131.21991	0.050773075	120.48075	0.0506563	120.46215	0.3839695	-135.93047	
16.81	0.3628586	-130.27605	0.051272636	119.32503	0.051195955	119.32313	0.37648315	-134.92536	
16.91	0.35696698	-129.33386	0.051931771	117.71819	0.051836197	117.77559	0.36807144	-134.17926	
17.01	0.34808023	-128.6229	0.052264914	116.05724	0.052186749	116.02454	0.36096173	-133.45893	
17.11	0.33841712	-128.09259	0.052616419	114.45241	0.052501448	114.45171	0.35078557	-132.58084	
17.21	0.32591958	-127.90809	0.053140729	112.83881	0.053049036	112.84671	0.3394243	-131.98378	
17.31	0.31083587	-127.69854	0.053640173	111.05299	0.053572281	111.14059	0.32687605	-131.7549	
17.41	0.2915763	-127.56762	0.054251394	109.14919	0.054126618	109.19959	0.3151412	-131.61854	
17.51	0.27008799	-126.97492	0.054753268	107.05639	0.054621054	107.04689	0.29860052	-131.67401	
17.61	0.24915202	-125.43209	0.055274338	104.97002	0.055128167	104.99112	0.28359869	-132.37439	
17.71	0.23185276	-123.9616	0.055917312	102.77095	0.05576302	102.65985	0.26711391	-133.26936	
17.81	0.21154465	-124.41625	0.056491022	99.845771	0.056322177	99.761471	0.25193907	-134.382	
17.91	0.1886063	-123.33974	0.056082479	96.53475	0.056088936	96.59405	0.23081605	-135.61693	
18.01	0.17058477	-120.37656	0.055286658	94.177155	0.055191262	94.201754	0.21231111	-139.24135	
18.11	0.16074049	-120.59801	0.054882056	92.557423	0.054774747	92.601619	0.19426408	-142.18491	
18.21	0.14874535	-124.51399	0.055210923	90.749313	0.055071255	90.772612	0.17529301	-148.05667	
18.31	0.13138798	-130.74666	0.055428464	88.551804	0.055377434	88.538806	0.15715277	-153.79705	
18.41	0.11117219	-140.49853	0.055800296	86.205193	0.055639921	86.158293	0.1424352	-165.15601	
18.51	0.092745584	-152.8346	0.056337218	84.135452	0.056317763	84.225552	0.13909806	-174.32332	
18.61	0.083361929	-169.37672	0.057064796	81.446719	0.056926996	81.621219	0.13418555	173.94279	
18.71	0.085024712	172.57216	0.057656219	78.380202	0.057623039	78.442702	0.13633511	162.5478	
18.81	0.096460219	151.01986	0.057784663	74.917327	0.057665039	74.882429	0.14658441	148.80451	
18.91	0.11968953	135.61144	0.057770443	71.449023	0.057703967	71.52042	0.16692371	140.58805	
19.01	0.14291962	124.56039	0.057317874	68.4229	0.057107102	68.476001	0.18426797	132.94967	
19.11	0.16460119	116.0608	0.05678556	65.533751	0.05679863	65.538252	0.20851643	127.63097	
19.21	0.18826024	112.94786	0.05671717	62.643886	0.056560671	62.599186	0.23079543	122.90867	
19.31	0.21420811	111.99241	0.056620634	59.34892	0.056464401	59.33062	0.25939717	119.45548	
19.41	0.24455749	111.00537	0.056037322	56.059411	0.055998626	56.055511	0.28368861	116.89819	
19.51	0.27536538	109.46375	0.055193591	52.704003	0.055187237	52.795203	0.31099158	114.878	
19.61	0.30644152	108.25028	0.054234829	49.490913	0.054010515	49.623404	0.33621883	113.74768	
19.71	0.33446092	107.02224	0.052890505	46.66991	0.052774936	46.683104	0.35886508	113.00453	
19.81	0.35996539	105.93682	0.051445022	44.505649	0.051474644	44.592545	0.38095054	111.875	
19.91	0.3795001	105.80477	0.05064062	42.435078	0.050588175	42.364082	0.40587811	111.34877	
20.01	0.39759196	106.41346	0.049711147	40.58658	0.050044204	40.49588	0.42823037	111.24201	
