!
! Hittite Microwave Corporation
! 2 Elizabeth Drive
! Chelmsford, MA 01824
! http://www.hittite.com
! Tel: 978-250-3343
! Fax: 978-250-3373
! 
! Device:      HMC424LP3
! Description: 0.5 dB GaAs MMIC 6-Bit Digital Attenuator
! Frequency:    DC -  13.00 GHz
! Package:     LP3  - 3x3 mm Quad Flatpack No-Lead (QFN) Plastic Package: 16 pin
! Ports:       2 RF, 7 DC
!              Pad  1  = Ground
!              Pad  2  = RF IN   = Port 1
!              Pad  3  = Ground
!              Pad  4  = V6
!              Pad  5  = V5
!              Pad  6  = V4
!              Pad  7  = V3
!              Pad  8  = V2
!              Pad  9  = V1
!              Pad 10  = Ground
!              Pad 11  = RF OUT  = Port 2
!              Pad 12  = Ground
!              Pad 15  = VEE
!
! Control:     -5 Volt control voltage
! State:        41 
! Attenuation:  20.5 dB
! Voltages:    Vdd = -5.00 Volts  Idd =  -2.397 mA
!              V1  = -5.00 Volts  I1  =  -1.0 uA
!              V2  = 0.00 Volts  I2  =  29.0 uA
!              V3  = 0.00 Volts  I3  =  29.0 uA
!              V4  = -5.00 Volts  I4  =  -1.0 uA
!              V5  = 0.00 Volts  I5  =  29.0 uA
!              V6  = -5.00 Volts  I6  =  -1.0 uA
!
! Data:    The device was measured on evaluation board 105354-1. 
!          Data was collected using a calibrated network analyzer.
!          The evaluation circuit board was modeled and simulated.  This was use
!          to removed the evaluation board circuit from the measured data.
!          The reference plane is the edge of the package pin.
!
! Misc:    Lot xxxx, Unit 1
!          Application 20120001, Data collected in Application 20090083
!
! Date Measured:  2009-09-15
! Date:           2012-05-14  MJV
! Note: 
!   Hittite supplies this data as a sample of measured data at the package pin
!   for this product.  Your particular data for this product may vary.
!   Data was taken at 25 degrees C.
!   Hittite reserves the right to change this data at anytime.
!
# GHz S MA R 50

0.01	0.071698945	2.3367901	0.071065874	-1.0360933	0.071278918	-1.3577933	0.044959635	6.71082	
0.11	0.070079576	-3.5021015	0.070858226	-2.1107015	0.070760399	-2.0912015	0.041178565	0.66687624	
0.21	0.070690196	-6.2001073	0.070908538	-3.5971747	0.070729165	-3.6179747	0.040542534	-7.5716924	
0.31	0.072432879	-8.7117119	0.070670465	-5.1374734	0.070597277	-5.1671734	0.045824858	-9.9447778	
0.41	0.073332492	-11.39199	0.070648044	-6.6051172	0.070607388	-6.6394172	0.04646739	-10.714609	
0.51	0.07526219	-13.996613	0.070501359	-8.1005617	0.070436455	-8.1578617	0.045621666	-12.962308	
0.61	0.07659554	-16.868727	0.070441369	-9.6181071	0.07037652	-9.6339071	0.047013118	-19.339592	
0.71	0.079500606	-19.290454	0.070394948	-11.04104	0.070313949	-11.15194	0.05337713	-20.910807	
0.81	0.081523184	-21.313757	0.070334401	-12.492143	0.070213042	-12.509643	0.053302136	-19.734082	
0.91	0.084592523	-23.315439	0.070206028	-14.056763	0.070076823	-14.036963	0.054521326	-24.521269	
1.01	0.086623416	-24.837258	0.070165532	-15.452171	0.070084798	-15.442571	0.058054758	-27.865836	
1.11	0.089303464	-26.636883	0.070114899	-16.933069	0.069937534	-16.914869	0.064498944	-27.193819	
1.21	0.091484369	-27.93172	0.06997217	-18.322776	0.069851437	-18.287776	0.06333271	-25.705686	
1.31	0.09391553	-29.467815	0.0698737	-19.827422	0.069809374	-19.798122	0.065615541	-30.317137	
1.41	0.09624473	-30.389673	0.06984648	-21.240523	0.069798249	-21.275523	0.070305071	-30.801641	
1.51	0.098052794	-31.737384	0.069827703	-22.651532	0.069699194	-22.657932	0.074360755	-29.497442	
1.61	0.10044795	-32.668771	0.069700419	-24.074085	0.069604191	-24.125785	0.072476904	-28.462981	
1.71	0.10194443	-33.723739	0.06968292	-25.534029	0.069578705	-25.534929	0.074146229	-32.740256	
1.81	0.10368265	-34.66043	0.06953509	-26.924983	0.069503076	-27.007683	0.078570819	-32.400284	
1.91	0.10449943	-35.53117	0.069518689	-28.399989	0.069406729	-28.415089	0.079810246	-31.763695	
2.01	0.10551181	-36.604122	0.069433412	-29.798341	0.069377478	-29.876141	0.077622513	-31.911747	
2.11	0.10617244	-37.703725	0.069385633	-31.277778	0.06928984	-31.351678	0.079490995	-36.385228	
2.21	0.10686068	-39.011057	0.069326954	-32.639392	0.069263131	-32.732892	0.084037891	-35.911086	
2.31	0.10740161	-40.229707	0.069321565	-34.182228	0.069154168	-34.075728	0.083210288	-35.824226	
2.41	0.10764288	-41.69295	0.069198527	-35.518562	0.069095037	-35.568662	0.081460676	-37.550623	
2.51	0.10790798	-43.213619	0.06917611	-36.920359	0.069040851	-36.881059	0.08413314	-41.665351	
2.61	0.10791266	-44.741848	0.069093783	-38.414133	0.069038123	-38.373133	0.088093579	-40.96179	
2.71	0.10831315	-46.505942	0.069049467	-39.823736	0.068970016	-39.839336	0.085774904	-41.63793	
2.81	0.10765366	-48.325801	0.068949499	-41.168826	0.068862235	-41.254426	0.085243205	-44.455225	
2.91	0.10838701	-50.311276	0.068852996	-42.643507	0.068868851	-42.729607	0.088394289	-47.837428	
3.01	0.10830335	-52.385609	0.06883299	-44.173766	0.068745874	-44.115466	0.091790136	-47.109636	
3.11	0.10888339	-54.57821	0.068795281	-45.543328	0.068684486	-45.514728	0.088417823	-48.281274	
3.21	0.10875358	-56.665251	0.068699619	-47.025327	0.068612672	-46.963627	0.088891634	-52.022146	
3.31	0.10939418	-59.047008	0.068589687	-48.432789	0.068518654	-48.337089	0.092136018	-54.416621	
3.41	0.109899	-61.478151	0.068564343	-49.843375	0.068453919	-49.888575	0.094261775	-54.163705	
3.51	0.11101436	-63.986957	0.068481194	-51.239507	0.068386649	-51.276707	0.090844463	-56.441561	
3.61	0.11193292	-66.560379	0.068321832	-52.702035	0.068274653	-52.699835	0.093274415	-60.834814	
3.71	0.11386685	-68.993766	0.068289762	-54.039311	0.06818763	-54.158211	0.097147216	-62.584666	
3.81	0.11573289	-71.284739	0.068139459	-55.526844	0.068123771	-55.556344	0.098151849	-62.795618	
3.91	0.11780772	-73.65452	0.06807347	-56.92658	0.067987314	-56.93878	0.095613528	-66.369352	
4.01	0.12625974	-74.514544	0.068186393	-58.303623	0.068006076	-58.318523	0.10820543	-68.193539	
4.11	0.12864849	-76.206358	0.067984004	-59.73315	0.067890146	-59.77025	0.11233161	-68.485386	
4.21	0.13145792	-77.822185	0.06791699	-61.176487	0.067862278	-61.215187	0.11331559	-68.914493	
4.31	0.13479968	-79.079446	0.06782131	-62.52661	0.067688701	-62.63481	0.11331075	-71.608471	
4.41	0.13741084	-80.130004	0.067697299	-63.957114	0.067673921	-64.020114	0.12046751	-73.356286	
4.51	0.14011924	-81.098657	0.067658702	-65.428451	0.067549737	-65.393051	0.12355744	-72.382842	
4.61	0.14287692	-82.078204	0.06749438	-66.796728	0.067408957	-66.883728	0.12401941	-72.614384	
4.71	0.1461015	-82.746342	0.067417311	-68.245454	0.067316484	-68.292454	0.1244821	-74.33193	
4.81	0.14842577	-83.394477	0.06732698	-69.646119	0.067272743	-69.648919	0.13158843	-75.143246	
4.91	0.15142689	-83.866478	0.067192679	-71.010252	0.067076741	-71.104452	0.13310933	-73.446785	
5.01	0.15354061	-84.251732	0.067027739	-72.447034	0.066973743	-72.428834	0.13229644	-73.904102	
5.11	0.15639268	-84.303883	0.066976384	-73.79636	0.066945547	-73.80966	0.13338507	-75.021702	
5.21	0.15803494	-84.497	0.066924754	-75.176312	0.066863143	-75.176212	0.13916066	-75.473396	
5.31	0.16040257	-84.482078	0.066749629	-76.601487	0.066741945	-76.634487	0.14006316	-73.358044	
5.41	0.16195431	-84.261641	0.066714781	-77.992391	0.066638017	-77.981991	0.13848774	-74.142345	
5.51	0.16362408	-84.068923	0.066634103	-79.271533	0.066565095	-79.353933	0.14104569	-74.741067	
5.61	0.16488925	-83.563911	0.066606747	-80.689687	0.066468859	-80.704987	0.14576112	-74.607622	
5.71	0.16531319	-83.247597	0.066440785	-82.082011	0.066280345	-82.106011	0.14571217	-72.288933	
5.81	0.16606066	-82.558787	0.066336375	-83.413952	0.066267675	-83.467252	0.14326703	-72.881736	
5.91	0.16574565	-82.062841	0.066250008	-84.770269	0.06620426	-84.807969	0.14713898	-73.03772	
6.01	0.16581663	-81.341703	0.066176078	-86.130051	0.066153226	-86.257651	0.1506802	-71.738894	
6.11	0.16524944	-80.618742	0.06610553	-87.633828	0.066006665	-87.612628	0.14958617	-69.325938	
6.21	0.16411157	-79.47271	0.066126316	-88.942822	0.065959041	-88.875522	0.14603665	-69.539122	
6.31	0.16263105	-78.789727	0.066113002	-90.263824	0.065938169	-90.275424	0.14941319	-69.039055	
6.41	0.16071266	-77.492235	0.065945052	-91.602565	0.065831267	-91.645365	0.15025417	-67.059257	
6.51	0.1579052	-76.432582	0.065960493	-93.053595	0.065877012	-93.061595	0.14784881	-64.499698	
6.61	0.1545051	-75.244997	0.065998887	-94.481799	0.065892595	-94.503099	0.14274188	-64.221471	
6.71	0.15105593	-74.238325	0.065960781	-95.869792	0.065839389	-95.897092	0.14444171	-63.577834	
6.81	0.1473131	-73.03525	0.065914984	-97.329476	0.065823982	-97.369976	0.14247861	-61.163435	
6.91	0.14276517	-71.803711	0.065929117	-98.821026	0.065792632	-98.805526	0.13851795	-59.224836	
7.01	0.13792814	-70.72373	0.065952095	-100.26518	0.065838298	-100.25718	0.13217231	-58.677839	
7.11	0.13263018	-69.606523	0.065866214	-101.70403	0.06585105	-101.70153	0.13272626	-58.545509	
7.21	0.12661836	-68.445299	0.065851351	-103.11597	0.065715027	-103.21777	0.12899936	-55.561604	
7.31	0.12033599	-67.237803	0.065944338	-104.67553	0.065876044	-104.67213	0.12254913	-54.621403	
7.41	0.1138157	-66.24715	0.066071263	-106.12746	0.065980045	-106.19006	0.11681975	-54.639896	
7.51	0.10659407	-65.049829	0.066166244	-107.70465	0.06596848	-107.64645	0.11568798	-54.750962	
7.61	0.099324356	-64.419197	0.066151697	-109.24913	0.066022352	-109.20063	0.11143289	-51.826029	
7.71	0.091609875	-63.547914	0.066127131	-110.83214	0.066013032	-110.84544	0.10345502	-51.285379	
7.81	0.083547524	-63.344814	0.066169179	-112.39553	0.066100652	-112.47933	0.097460654	-51.617488	
7.91	0.07535246	-62.877875	0.066261798	-114.01528	0.066139851	-113.97788	0.094467638	-51.941491	
8.01	0.06666451	-62.787033	0.066251867	-115.60746	0.066152783	-115.63776	0.088336058	-49.103138	
8.11	0.057674202	-63.814731	0.066271513	-117.30362	0.066164782	-117.30852	0.078742601	-49.73947	
8.21	0.048918871	-65.745021	0.066203848	-118.94081	0.066165748	-118.94921	0.072066989	-51.356416	
8.31	0.039867992	-68.825416	0.066227473	-120.50274	0.066120813	-120.50934	0.067369816	-52.243428	
8.41	0.030969698	-75.291731	0.066212369	-122.16504	0.066082905	-122.15414	0.059444635	-50.02581	
8.51	0.02302411	-88.292397	0.066262134	-123.90227	0.066178271	-123.86137	0.04835727	-54.20051	
8.61	0.017947038	-111.5006	0.066205351	-125.60996	0.066152017	-125.59886	0.04207171	-61.778902	
8.71	0.017845989	-146.51637	0.066245719	-127.24481	0.066108578	-127.26761	0.03670587	-67.975385	
8.81	0.024042211	-170.31397	0.066243409	-128.97981	0.066091053	-129.00151	0.028085759	-74.73963	
8.91	0.033184459	178.3934	0.066270658	-130.72782	0.066171546	-130.73092	0.023793443	-104.02282	
9.01	0.042265808	172.88137	0.066249066	-132.42757	0.066043451	-132.47337	0.027371966	-122.59426	
9.11	0.052452706	168.17466	0.066145457	-134.10884	0.066000925	-134.12264	0.032255661	-137.30246	
9.21	0.063441934	167.20455	0.066067087	-135.88207	0.065930317	-135.87687	0.03621009	-148.8067	
9.31	0.073512951	165.6403	0.065990436	-137.77425	0.065884158	-137.67615	0.048143331	-160.53008	
9.41	0.085300229	165.37464	0.065828194	-139.44011	0.065707045	-139.46321	0.057908802	-159.43011	
9.51	0.095488785	165.43403	0.06555471	-141.06262	0.065336204	-141.11052	0.063535582	-163.44506	
9.61	0.10594942	165.86589	0.065282029	-142.72538	0.065191901	-142.71978	0.074278425	-166.43038	
9.71	0.11595962	166.89283	0.065171838	-144.32676	0.06507437	-144.34416	0.085407015	-167.20126	
9.81	0.1254243	167.78072	0.064907126	-146.04455	0.064839907	-145.94335	0.094356279	-166.3621	
9.91	0.13433076	168.64912	0.064711167	-147.40058	0.064562335	-147.41128	0.10088276	-167.56369	
10.01	0.14305092	169.42223	0.064631488	-149.05465	0.064445731	-149.05755	0.11157387	-168.64606	
10.11	0.15193682	170.39297	0.064318111	-150.65367	0.064258899	-150.64927	0.12248855	-168.4296	
10.21	0.15999993	171.40393	0.064170166	-152.12669	0.063985735	-152.09639	0.1308817	-166.87288	
10.31	0.16834907	172.61562	0.06385768	-153.64027	0.063762177	-153.54987	0.13621286	-167.30766	
10.41	0.17491619	173.3631	0.063735991	-154.9409	0.063618693	-154.9689	0.14720895	-167.46796	
10.51	0.18261338	174.29958	0.063505735	-156.33857	0.063432663	-156.36687	0.15731218	-166.55086	
10.61	0.18933968	175.38717	0.063464552	-157.77855	0.06344994	-157.80575	0.16433536	-165.27192	
10.71	0.19553096	176.40715	0.063426599	-159.23001	0.063309871	-159.26001	0.1697943	-165.53892	
10.81	0.20155053	177.25138	0.063298993	-160.73816	0.06324072	-160.74526	0.18027743	-165.29574	
10.91	0.20662055	178.19981	0.063196826	-162.1727	0.063102311	-162.2111	0.18756206	-163.94512	
11.01	0.21177278	178.94319	0.063035455	-163.62132	0.062926691	-163.65122	0.19235835	-163.0061	
11.11	0.21620055	179.94896	0.062925508	-164.992	0.062788012	-165.0865	0.19624424	-162.95703	
11.21	0.21979495	-179.4716	0.062781916	-166.46683	0.062673589	-166.46003	0.20406887	-162.64858	
11.31	0.2233389	-178.77344	0.062774726	-167.87419	0.062551082	-167.88219	0.20883539	-161.54518	
11.41	0.22702954	-178.23117	0.062547079	-169.31606	0.06241041	-169.23846	0.21147746	-160.69949	
11.51	0.22985222	-177.62317	0.06247904	-170.72474	0.062356875	-170.72354	0.21301018	-160.92455	
11.61	0.23238823	-177.27701	0.062281974	-172.17286	0.062224636	-172.19756	0.21987375	-161.12322	
11.71	0.23483086	-176.86481	0.062192731	-173.58574	0.062106868	-173.54194	0.22214501	-160.25735	
11.81	0.23703378	-176.54403	0.062057154	-174.94094	0.062028582	-175.00244	0.22378507	-160.42213	
11.91	0.23899071	-176.33286	0.061929416	-176.51053	0.06186528	-176.46153	0.22587177	-160.67578	
12.01	0.24106277	-176.15372	0.061855956	-178.00016	0.061742118	-177.96506	0.23100656	-160.99887	
12.11	0.24307502	-176.04544	0.061635756	-179.42397	0.061550661	-179.39827	0.23281683	-160.39171	
12.21	0.24526444	-176.02715	0.061573896	179.1755	0.061439353	179.0951	0.23373302	-161.0561	
12.31	0.24730358	-176.08065	0.061328359	177.60209	0.06125074	177.58959	0.23722358	-161.52558	
12.41	0.2495012	-176.33555	0.061032363	176.02562	0.060948101	175.94882	0.24287946	-161.98159	
12.51	0.25081309	-176.66653	0.060612285	174.62508	0.060389392	174.55258	0.24464825	-161.4359	
12.61	0.25189152	-176.78252	0.06018736	173.5071	0.060125028	173.5195	0.24565618	-162.45668	
12.71	0.25401795	-176.51206	0.060259625	172.31652	0.060162576	172.29672	0.25125139	-162.91008	
12.81	0.25604013	-176.44642	0.060223084	171.00173	0.060153789	170.99033	0.25593718	-163.18892	
12.91	0.25923863	-176.39617	0.060305938	169.51769	0.060125691	169.50539	0.25923041	-162.86533	
13.01	0.26192376	-176.44298	0.060248621	168.10651	0.060096214	168.10101	0.26147101	-163.70833	
13.11	0.2658176	-176.50418	0.060086396	166.7078	0.06003108	166.677	0.2675615	-164.11349	
13.21	0.26905266	-176.41088	0.059948746	165.15675	0.05983153	165.15865	0.27209288	-164.28727	
13.31	0.27224528	-176.46249	0.059774921	163.70834	0.059671782	163.62794	0.27645943	-164.23352	
13.41	0.27609716	-176.40717	0.05954808	162.38303	0.059370097	162.37793	0.27990588	-164.81341	
13.51	0.28015681	-176.21638	0.059416042	161.01771	0.059279389	160.94701	0.2875498	-165.10349	
13.61	0.28457347	-176.10351	0.059273632	159.60827	0.059137306	159.65057	0.29346623	-164.96346	
13.71	0.28969724	-175.83001	0.059156914	158.21327	0.059048044	158.17547	0.29832219	-164.79531	
13.81	0.29430914	-175.33506	0.058953405	156.79384	0.058872014	156.82654	0.30358939	-165.14906	
13.91	0.29883326	-175.01266	0.058763107	155.44075	0.058715768	155.37855	0.31293626	-164.9106	
14.01	0.30460834	-174.562	0.058581637	153.95753	0.058473825	154.03983	0.31806788	-164.38549	
14.11	0.30936905	-173.85333	0.058407349	152.59013	0.058326712	152.61573	0.32466355	-164.00061	
14.21	0.31369279	-173.25752	0.05823593	151.2747	0.058135447	151.3231	0.33059939	-163.84173	
14.31	0.31934569	-172.53207	0.058018723	149.98606	0.05787862	150.04236	0.34004637	-163.184	
14.41	0.32437576	-171.67243	0.057896655	148.68457	0.057736901	148.68487	0.34428989	-162.30369	
14.51	0.32952445	-170.73958	0.057662583	147.40463	0.057569716	147.33803	0.35095161	-161.81773	
14.61	0.33437899	-169.73779	0.057533188	146.08243	0.057414084	146.04303	0.35639493	-161.08304	
14.71	0.33890113	-168.63592	0.057313207	144.83365	0.057194558	144.74195	0.3650729	-160.24099	
14.81	0.34355928	-167.67724	0.057165237	143.48489	0.056987815	143.47939	0.36902508	-158.89821	
14.91	0.3478918	-166.3334	0.056929476	142.18134	0.056772391	142.26904	0.37406848	-158.24015	
15.01	0.35111855	-165.16637	0.056706909	141.00037	0.0566221	140.94807	0.37921315	-157.17611	
15.11	0.35415083	-163.98586	0.056444801	139.81497	0.056366873	139.79907	0.38552879	-156.21526	
15.21	0.35696158	-162.73974	0.056367427	138.73752	0.056276646	138.73562	0.38905156	-154.61834	
15.31	0.35975389	-161.38092	0.056394018	137.62955	0.056270793	137.57815	0.392309	-153.83545	
15.41	0.36173807	-160.12626	0.056428335	136.38306	0.056194944	136.51386	0.39736773	-152.46246	
15.51	0.36324896	-158.79859	0.05634748	135.19861	0.05630857	135.19501	0.40080264	-151.22185	
15.61	0.36265049	-157.41523	0.056311304	133.87105	0.056136533	133.89585	0.40230773	-149.60031	
15.71	0.36128464	-156.04798	0.056089889	132.70256	0.056012452	132.71716	0.40283141	-148.72311	
15.81	0.36123301	-154.42619	0.056161207	131.74247	0.05592892	131.64087	0.40671358	-147.35871	
15.91	0.36103334	-152.93117	0.056176042	130.50313	0.055982352	130.53553	0.40690073	-145.88167	
16.01	0.35819743	-151.54596	0.056235116	129.30053	0.056183345	129.34043	0.40611408	-144.40615	
16.11	0.35389103	-150.03403	0.056132826	128.01449	0.056035972	128.00789	0.4042798	-143.39102	
16.21	0.34974447	-148.18539	0.055886113	126.98285	0.055802532	126.93975	0.40581369	-142.01659	
16.31	0.34784021	-146.2312	0.056065195	126.13347	0.055897622	126.14177	0.40241074	-140.44786	
16.41	0.34494958	-144.48704	0.056354993	125.15057	0.05622538	125.17887	0.39851287	-139.29782	
16.51	0.34077967	-143.12142	0.056682152	124.07587	0.056760515	123.95817	0.39300919	-138.25818	
16.61	0.33572333	-142.01409	0.057167679	122.83278	0.057128202	122.77768	0.38967707	-137.30435	
16.71	0.32968403	-140.83569	0.057567279	121.53913	0.057501041	121.53403	0.38402217	-135.99369	
16.81	0.32068035	-139.85005	0.058233082	120.16279	0.058052346	120.20719	0.37635198	-134.98643	
16.91	0.31200415	-138.82476	0.058839414	118.5139	0.058744653	118.5717	0.36813533	-134.22127	
17.01	0.30068971	-137.99598	0.059186995	116.7771	0.059044071	116.8328	0.36093003	-133.51667	
17.11	0.28890704	-137.50059	0.05955343	115.15624	0.059484906	115.18394	0.35073324	-132.62469	
17.21	0.27429487	-137.38359	0.060030871	113.4673	0.059906597	113.4333	0.33929333	-132.03875	
17.31	0.25788438	-137.34592	0.060495527	111.62788	0.0603981	111.68927	0.3266143	-131.83319	
17.41	0.23692859	-137.58167	0.061009163	109.67123	0.060875851	109.70133	0.31482537	-131.6726	
17.51	0.21403403	-137.45127	0.06138353	107.59455	0.061305838	107.65975	0.29851449	-131.70533	
17.61	0.19052305	-136.36671	0.061926622	105.58938	0.061713104	105.66578	0.28319165	-132.42373	
17.71	0.17040728	-135.04247	0.062644801	103.36906	0.062450372	103.32326	0.26672024	-133.32863	
17.81	0.14851954	-136.33093	0.063231294	100.55742	0.063100394	100.64522	0.25174507	-134.4901	
17.91	0.12424707	-135.99168	0.062842582	97.620394	0.062561049	97.622294	0.23063368	-135.70171	
18.01	0.10292791	-132.9137	0.062123966	95.40843	0.062009634	95.375434	0.21203485	-139.36489	
18.11	0.09024859	-133.42091	0.061992907	93.651465	0.061914446	93.709461	0.19417536	-142.36639	
18.21	0.07787568	-140.76028	0.062488569	91.538302	0.062265946	91.618202	0.17494355	-148.16928	
18.31	0.063382372	-154.67193	0.062687608	89.196046	0.062629897	89.174448	0.15669401	-153.96202	
18.41	0.052611811	179.77093	0.062959223	86.712373	0.06283612	86.793673	0.14223024	-165.3835	
18.51	0.052491558	150.06218	0.063309371	84.556142	0.063236526	84.509942	0.13897628	-174.55929	
18.61	0.065922303	128.78636	0.064028589	81.880784	0.063977009	81.908984	0.13395102	173.78451	
18.71	0.085128869	117.75207	0.064484006	78.811226	0.064357921	78.928026	0.13645232	162.34149	
18.81	0.11326627	108.2351	0.064519104	75.380815	0.064363307	75.350715	0.14635906	148.63177	
18.91	0.14449537	103.33719	0.06427195	71.994095	0.064168443	72.014197	0.16700702	140.41513	
19.01	0.17261433	98.906113	0.063504409	69.026477	0.06345325	68.97828	0.18428369	132.8246	
19.11	0.19776413	94.956618	0.062918733	66.295984	0.062817406	66.296284	0.20837873	127.46731	
19.21	0.22027137	94.227273	0.062748793	63.613904	0.062662162	63.578704	0.23081975	122.80152	
19.31	0.24261397	94.845484	0.062685507	60.531376	0.062411863	60.426876	0.2590796	119.3906	
19.41	0.26866452	95.53999	0.062023439	57.216718	0.061880789	57.283418	0.28377994	116.83113	
19.51	0.2959518	95.605114	0.061092059	54.145639	0.060930503	54.126339	0.31079022	114.77433	
19.61	0.32298459	95.756072	0.059974019	51.033214	0.059939505	51.078413	0.33629919	113.68785	
19.71	0.34773605	95.735869	0.058663789	48.318019	0.058448065	48.43391	0.35900552	112.94202	
19.81	0.37041893	95.654367	0.057120081	46.229027	0.05704779	46.228532	0.38100626	111.80726	
19.91	0.38744646	96.168627	0.056242043	44.246432	0.05607394	44.249534	0.40585969	111.30195	
20.01	0.40222308	97.290527	0.055695736	42.493507	0.055503701	42.454407	0.42788763	111.20511	
