!
! Hittite Microwave Corporation
! 2 Elizabeth Drive
! Chelmsford, MA 01824
! http://www.hittite.com
! Tel: 978-250-3343
! Fax: 978-250-3373
! 
! Device:      HMC424LP3
! Description: 0.5 dB GaAs MMIC 6-Bit Digital Attenuator
! Frequency:    DC -  13.00 GHz
! Package:     LP3  - 3x3 mm Quad Flatpack No-Lead (QFN) Plastic Package: 16 pin
! Ports:       2 RF, 7 DC
!              Pad  1  = Ground
!              Pad  2  = RF IN   =  Port 1
!              Pad  3  = Ground
!              Pad  4  = V6
!              Pad  5  = V5
!              Pad  6  = V4
!              Pad  7  = V3
!              Pad  8  = V2
!              Pad  9  = V1
!              Pad 10  = Ground
!              Pad 11  = RF OUT  = Port 2
!              Pad 12  = Ground
!              Pad 15  = VEE
!
! Control:     -5 Volt control voltage
! State:        47 
! Attenuation:  23.5 dB
! Voltages:    Vdd = -5.00 Volts  Idd =  -2.643 mA
!              V1  = -5.00 Volts  I1  =  -1.0 uA
!              V2  = -5.00 Volts  I2  =  -1.0 uA
!              V3  = -5.00 Volts  I3  =  -1.0 uA
!              V4  = -5.00 Volts  I4  =  -1.0 uA
!              V5  = 0.00 Volts  I5  =  29.0 uA
!              V6  = -5.00 Volts  I6  =  -1.0 uA
!
! Data:    The device was measured on evaluation board 105354-1. 
!          Data was collected using a calibrated network analyzer.
!          The evaluation circuit board was modeled and simulated.  This was use
!          to removed the evaluation board circuit from the measured data.
!          The reference plane is the edge of the package pin.
!
! Misc:    Lot xxxx, Unit 1
!          Application 20120001, Data collected in Application 20090083
!
! Date Measured:  2009-09-15
! Date:           2012-05-14  MJV
! Note: 
!   Hittite supplies this data as a sample of measured data at the package pin
!   for this product.  Your particular data for this product may vary.
!   Data was taken at 25 degrees C.
!   Hittite reserves the right to change this data at anytime.
!
# GHz S MA R 50

0.01	0.09676941	174.62211	0.050051358	-0.3356193	0.051175945	-0.7922193	0.043480803	6.6909972	
0.11	0.0995029	178.47431	0.051122413	-2.0858251	0.050910967	-2.2076251	0.040202202	0.64725227	
0.21	0.098695112	177.58294	0.05092073	-3.5185779	0.050932456	-3.6355779	0.039679948	-7.6084528	
0.31	0.09672783	176.52386	0.050759125	-5.0360143	0.050659877	-5.1378143	0.04479278	-10.035017	
0.41	0.095926331	175.77969	0.050747326	-6.5370319	0.050700607	-6.4870319	0.045547959	-10.85479	
0.51	0.09404242	174.98313	0.050664594	-7.9861102	0.050658762	-7.9829102	0.0447686	-12.904727	
0.61	0.092763826	174.42678	0.050621488	-9.3614012	0.05061566	-9.4282012	0.046127123	-19.561838	
0.71	0.090078563	173.87195	0.050606145	-10.822301	0.050547916	-10.840801	0.052468476	-20.995118	
0.81	0.088105541	172.94201	0.050575285	-12.291719	0.05048802	-12.234519	0.052395798	-19.772163	
0.91	0.08510408	172.13436	0.050484272	-13.666515	0.050414574	-13.713915	0.053610278	-24.572113	
1.01	0.082920401	170.72361	0.050491502	-15.09121	0.050346384	-15.18661	0.057129064	-27.902138	
1.11	0.080364627	169.94493	0.050404188	-16.578391	0.0504216	-16.596591	0.063634297	-27.356287	
1.21	0.077996467	168.37608	0.05039587	-17.971801	0.050366869	-18.003301	0.062362009	-25.764787	
1.31	0.075462896	167.13473	0.050366696	-19.399919	0.050337711	-19.387019	0.06478813	-30.390667	
1.41	0.072862194	165.20479	0.050371075	-20.774294	0.050313117	-20.765294	0.069405277	-30.845361	
1.51	0.070810722	163.6305	0.05031711	-22.258579	0.050236073	-22.296779	0.073434124	-29.469851	
1.61	0.068063938	161.62698	0.050300136	-23.627472	0.050259615	-23.720672	0.071618451	-28.391389	
1.71	0.066317546	159.5245	0.050239985	-25.07198	0.050187956	-25.04988	0.073416292	-32.711379	
1.81	0.064177915	157.31721	0.050183445	-26.404966	0.050108393	-26.580766	0.077707127	-32.411864	
1.91	0.06309743	154.60568	0.050221301	-27.924458	0.050088492	-28.024858	0.078946408	-31.791279	
2.01	0.061681423	152.29515	0.050162178	-29.348916	0.050006491	-29.370316	0.076836317	-31.897671	
2.11	0.06108827	149.88405	0.05009518	-30.686064	0.050037539	-30.817964	0.078614709	-36.3675	
2.21	0.060054111	147.94396	0.050094218	-32.184388	0.050053863	-32.212788	0.083259487	-35.887943	
2.31	0.05936809	145.85943	0.050010277	-33.59369	0.049895256	-33.53119	0.082425779	-35.691356	
2.41	0.058929069	143.94924	0.050048204	-35.008793	0.049961849	-34.949693	0.080587375	-37.512847	
2.51	0.058499012	142.19816	0.049939526	-36.330042	0.049922281	-36.333342	0.083277525	-41.638167	
2.61	0.058664984	140.53524	0.04991433	-37.882643	0.049931573	-37.892043	0.08721645	-40.907997	
2.71	0.057997566	139.26524	0.049852807	-39.314321	0.049789712	-39.301721	0.084994625	-41.56387	
2.81	0.058518526	137.99532	0.049871815	-40.638447	0.049785764	-40.613647	0.084391711	-44.365085	
2.91	0.057806908	137.2328	0.049761514	-42.045606	0.049704256	-42.133206	0.087483799	-47.702795	
3.01	0.057879375	136.55933	0.049706895	-43.386629	0.04967257	-43.511229	0.090924205	-47.049473	
3.11	0.057507715	136.13376	0.049783262	-44.92349	0.049691642	-44.93159	0.087435055	-48.245453	
3.21	0.057588855	135.4687	0.049629023	-46.307102	0.049663318	-46.284202	0.088086635	-51.923244	
3.31	0.05730535	135.58644	0.049568801	-47.70745	0.049557388	-47.71055	0.091335294	-54.419785	
3.41	0.05710791	135.64099	0.049547459	-49.128865	0.049479054	-49.169265	0.093521251	-54.108828	
3.51	0.056512589	136.17442	0.049559643	-50.439589	0.049422893	-50.520489	0.090000665	-56.392516	
3.61	0.056187341	136.85179	0.049494578	-51.842356	0.0494604	-51.905556	0.092447598	-60.748972	
3.71	0.055146972	137.72248	0.049500092	-53.322751	0.049374875	-53.334251	0.096324416	-62.490956	
3.81	0.054017412	138.45644	0.049443569	-54.763987	0.049426495	-54.740487	0.097351087	-62.690899	
3.91	0.052983114	139.50337	0.04930704	-56.102195	0.04930704	-56.089295	0.094965943	-66.31404	
4.01	0.045030321	142.38785	0.049301669	-57.554503	0.049193942	-57.531403	0.10734445	-68.147483	
4.11	0.043146357	142.86018	0.049290073	-58.975714	0.049216357	-58.944114	0.11151885	-68.431346	
4.21	0.041044833	143.99423	0.04924674	-60.399635	0.049212734	-60.361135	0.11257312	-68.808164	
4.31	0.037917832	145.23608	0.049200117	-61.742111	0.049126535	-61.757711	0.11260625	-71.574193	
4.41	0.035122295	145.16613	0.049218419	-63.199046	0.049156127	-63.196246	0.119661	-73.283722	
4.51	0.032028093	145.42339	0.049078007	-64.636065	0.049066708	-64.714165	0.1226629	-72.289888	
4.61	0.029013405	146.02152	0.049066635	-66.054167	0.049010177	-66.058467	0.12321661	-72.525543	
4.71	0.025136853	146.50158	0.049011244	-67.333931	0.048943579	-67.415431	0.12369837	-74.251054	
4.81	0.021628814	146.23839	0.048967769	-68.842087	0.048883278	-68.832387	0.13079344	-75.084734	
4.91	0.017392707	145.62668	0.048947541	-70.302171	0.048851834	-70.342671	0.13236424	-73.354539	
5.01	0.013603561	143.28295	0.048790994	-71.611899	0.048757302	-71.647799	0.13155743	-73.800317	
5.11	0.008605332	137.66412	0.048788576	-73.089521	0.048743661	-73.096221	0.13256681	-74.917626	
5.21	0.004985275	118.11719	0.048794457	-74.509369	0.048727091	-74.549569	0.13851349	-75.397063	
5.31	0.003251507	44.14611	0.048685613	-75.933363	0.048607204	-76.036063	0.13937047	-73.246346	
5.41	0.00750456	6.9556557	0.04865402	-77.384259	0.048598037	-77.374659	0.13784582	-74.006547	
5.51	0.012557287	-3.3779558	0.048591506	-78.764883	0.048574726	-78.799883	0.14044995	-74.658506	
5.61	0.018619756	-5.9918755	0.048525145	-80.279945	0.048446995	-80.253345	0.14507062	-74.485511	
5.71	0.023888243	-5.8380387	0.048421208	-81.638751	0.048276483	-81.730051	0.14515622	-72.178364	
5.81	0.030465219	-6.0578568	0.048351869	-83.038875	0.048312918	-83.038775	0.14277504	-72.768628	
5.91	0.036109771	-5.080769	0.048325199	-84.52949	0.048214054	-84.53209	0.146564	-72.889019	
6.01	0.04259033	-4.6547498	0.048192401	-85.995663	0.048159123	-85.949263	0.15006028	-71.633262	
6.11	0.048809011	-3.862934	0.048151835	-87.354048	0.048035559	-87.352948	0.14893039	-69.170744	
6.21	0.056123831	-2.3939706	0.048079158	-88.7239	0.048001726	-88.7383	0.14548765	-69.434692	
6.31	0.062028319	-1.33298	0.047982243	-90.156442	0.047921516	-90.194942	0.14881013	-68.88727	
6.41	0.069433002	0.13787831	0.047906919	-91.568811	0.047791234	-91.548511	0.1497212	-66.903729	
6.51	0.076087222	1.764129	0.047860291	-92.993744	0.047684292	-92.995644	0.14741179	-64.362549	
6.61	0.082955097	3.5646202	0.047809018	-94.505832	0.047732021	-94.464432	0.14227265	-64.05181	
6.71	0.088963058	5.0647119	0.047798923	-95.902096	0.047688988	-95.925996	0.1439529	-63.409412	
6.81	0.095372593	6.4838132	0.047680455	-97.461	0.04757627	-97.4106	0.14197433	-60.99088	
6.91	0.10159739	8.1707018	0.047590437	-98.836571	0.047486449	-98.918671	0.13805146	-59.01237	
7.01	0.10710512	9.8293784	0.047516001	-100.33985	0.047505061	-100.35185	0.13169155	-58.444026	
7.11	0.11263837	11.352023	0.047474206	-101.82912	0.047512481	-101.80012	0.13227177	-58.334848	
7.21	0.11768296	13.142679	0.047357453	-103.2706	0.047264856	-103.3266	0.12853534	-55.308114	
7.31	0.12311426	14.886	0.047324964	-104.63988	0.047178083	-104.69428	0.12205288	-54.362125	
7.41	0.12738781	16.514652	0.047322604	-106.16384	0.047235513	-106.20714	0.11632402	-54.287294	
7.51	0.13215839	18.199025	0.047299817	-107.60486	0.047169303	-107.69906	0.11530946	-54.389604	
7.61	0.13541598	19.805913	0.047212577	-109.21647	0.047125688	-109.12947	0.11106736	-51.416467	
7.71	0.13903139	21.445841	0.047281025	-110.71321	0.047134281	-110.68931	0.10315992	-50.845945	
7.81	0.14120774	23.143268	0.047187504	-112.28104	0.047046466	-112.28914	0.097143272	-51.073852	
7.91	0.14386026	24.7149	0.047191493	-113.82373	0.046990895	-113.76393	0.094103861	-51.392665	
8.01	0.14576451	26.390869	0.047126101	-115.31259	0.046990656	-115.24999	0.088151694	-48.520662	
8.11	0.14659184	28.176466	0.047073914	-116.81557	0.04699269	-116.93077	0.078629952	-49.043535	
8.21	0.1469917	29.854991	0.047029078	-118.4404	0.046991192	-118.4283	0.07196315	-50.564742	
8.31	0.14729678	31.664843	0.046994556	-119.88911	0.046967512	-120.00731	0.067268981	-51.449676	
8.41	0.14672081	33.477102	0.046986424	-121.46769	0.046975606	-121.57659	0.059369802	-49.066329	
8.51	0.14547121	35.424978	0.047036619	-123.21708	0.046928438	-123.14408	0.048221226	-53.051222	
8.61	0.14372197	37.267418	0.046968566	-124.78173	0.046952347	-124.75053	0.041909787	-60.3698	
8.71	0.14139199	39.350657	0.047009861	-126.32442	0.046944959	-126.33612	0.036461806	-66.417936	
8.81	0.13823881	41.548438	0.047049986	-127.94649	0.046920162	-127.95669	0.027889695	-73.049304	
8.91	0.13404482	43.584694	0.047115972	-129.64029	0.046980556	-129.63349	0.023218473	-101.95647	
9.01	0.12974089	45.525685	0.047103011	-131.35503	0.046978448	-131.34243	0.026520598	-121.25959	
9.11	0.12595383	47.993004	0.047099365	-132.95885	0.047012684	-132.96025	0.031392976	-136.54866	
9.21	0.11982736	50.637138	0.047099318	-134.58973	0.046958544	-134.67553	0.035219477	-148.43664	
9.31	0.11513214	53.188832	0.04714713	-136.44137	0.046968346	-136.47807	0.047124566	-160.37526	
9.41	0.1086079	56.807894	0.047028843	-138.23336	0.046963916	-138.29596	0.056864612	-159.21059	
9.51	0.1030743	59.907304	0.046741456	-139.88635	0.046612483	-139.87905	0.062593018	-163.34003	
9.61	0.09687742	63.446207	0.04662267	-141.38272	0.046515441	-141.35362	0.073126382	-166.32758	
9.71	0.089527554	66.879888	0.046586257	-142.93698	0.046489815	-142.94538	0.084392277	-167.16224	
9.81	0.082444525	70.785036	0.046472984	-144.50164	0.046387456	-144.57664	0.093365495	-166.30268	
9.91	0.075769624	75.244325	0.046290853	-145.94622	0.046221622	-145.92272	0.099926048	-167.47287	
10.01	0.069132686	80.183064	0.046328814	-147.54694	0.046254201	-147.63504	0.1107789	-168.50659	
10.11	0.062639779	86.935852	0.04620106	-149.21206	0.046131963	-149.17276	0.12161209	-168.31006	
10.21	0.056443564	94.084857	0.046149315	-150.51148	0.046027274	-150.72468	0.13003857	-166.70431	
10.31	0.050608291	103.72144	0.045951383	-152.06894	0.045856255	-152.09034	0.13543546	-167.14736	
10.41	0.046860101	113.05519	0.045834555	-153.50718	0.045744936	-153.37948	0.14636732	-167.29207	
10.51	0.044782845	125.68621	0.045790295	-154.81961	0.045737607	-154.73881	0.15652795	-166.39488	
10.61	0.04368412	138.89815	0.045911692	-156.25529	0.045821922	-156.21159	0.16362474	-165.11576	
10.71	0.044456332	151.62968	0.045883487	-157.7797	0.045841246	-157.7833	0.16923672	-165.38518	
10.81	0.047282318	163.16002	0.04589869	-159.30287	0.045866995	-159.32687	0.17952766	-165.12453	
10.91	0.051205878	173.31407	0.045941745	-160.78828	0.045788613	-160.73488	0.18699183	-163.80114	
11.01	0.056623503	-178.93721	0.045830502	-162.26661	0.045804128	-162.29231	0.19180349	-162.83457	
11.11	0.062243635	-171.21749	0.045827135	-163.80443	0.04566387	-163.84213	0.19578824	-162.79972	
11.21	0.067866598	-166.04573	0.045686622	-165.29937	0.045560559	-165.20987	0.20351253	-162.51395	
11.31	0.073914878	-161.67582	0.045615558	-166.85896	0.045610306	-166.80366	0.20840318	-161.39506	
11.41	0.080465568	-158.41853	0.045576519	-168.32393	0.045545047	-168.25293	0.21112316	-160.55182	
11.51	0.086796342	-154.97907	0.045565752	-169.72166	0.045434792	-169.70186	0.21259217	-160.7938	
11.61	0.092617085	-152.79866	0.045439945	-171.4645	0.045419024	-171.3036	0.21937212	-160.98918	
11.71	0.098797356	-150.57951	0.04541239	-172.8109	0.045302729	-172.7869	0.22171359	-160.14012	
11.81	0.10458277	-148.8835	0.045351372	-174.19499	0.045189801	-174.21929	0.2234544	-160.28893	
11.91	0.11057432	-147.6394	0.045275738	-175.75965	0.045182009	-175.84695	0.22557488	-160.55063	
12.01	0.1161647	-146.51052	0.045169393	-177.27631	0.045034387	-177.34491	0.23073143	-160.86487	
12.11	0.12206928	-145.71237	0.045105232	-178.85774	0.045006674	-178.84434	0.23256548	-160.30385	
12.21	0.12783789	-145.25534	0.044976916	179.54705	0.044857976	179.63845	0.23362189	-160.93486	
12.31	0.13367749	-145.10101	0.044814812	177.91885	0.044830294	177.95385	0.23708116	-161.40907	
12.41	0.13878655	-145.38799	0.044638948	176.12585	0.044515776	176.12005	0.24271314	-161.90622	
12.51	0.14244772	-145.62949	0.04403226	174.56575	0.04406776	174.57055	0.2443799	-161.34231	
12.61	0.14653033	-145.28949	0.043701066	173.52	0.043650783	173.638	0.24549002	-162.33209	
12.71	0.152866	-144.53083	0.043681225	172.55418	0.043565712	172.47958	0.25097735	-162.79657	
12.81	0.158964	-144.34384	0.043706401	171.20691	0.04370137	171.23501	0.25569551	-163.09748	
12.91	0.16606159	-144.29566	0.043784595	169.78428	0.043693953	169.81128	0.25897561	-162.77364	
13.01	0.17235142	-144.47406	0.043791546	168.35251	0.043680769	168.38401	0.26126698	-163.58962	
13.11	0.18009328	-144.90153	0.043661853	166.73148	0.043631703	166.77928	0.267383	-164.0227	
13.21	0.18737053	-145.10976	0.043627367	165.24619	0.043511996	165.20059	0.27196791	-164.17521	
13.31	0.19406303	-145.4577	0.043373302	163.56515	0.043308435	163.55665	0.27627806	-164.18262	
13.41	0.20161771	-145.80361	0.043197911	162.31628	0.043073757	162.29848	0.27985766	-164.73512	
13.51	0.20998073	-146.00753	0.043117387	160.99577	0.042988514	160.88427	0.28738426	-165.03405	
13.61	0.2181735	-146.35967	0.043031942	159.47575	0.042952747	159.51725	0.29327374	-164.89259	
13.71	0.22777265	-146.6806	0.042903313	158.01316	0.042903313	158.11166	0.29818938	-164.74279	
13.81	0.23686785	-146.7061	0.042850606	156.54669	0.042653725	156.57129	0.30343555	-165.08174	
13.91	0.2460752	-146.91062	0.042669047	155.16468	0.042521927	155.19288	0.31263571	-164.86063	
14.01	0.25632234	-147.11111	0.042462344	153.63801	0.042423253	153.70851	0.31795941	-164.32038	
14.11	0.26628386	-146.95387	0.042289256	152.31915	0.042187136	152.14805	0.32461835	-163.96416	
14.21	0.27568735	-146.86612	0.042098784	150.84202	0.042040663	150.73312	0.33042865	-163.78707	
14.31	0.28626749	-146.80376	0.041909685	149.54895	0.041890389	149.39675	0.33982756	-163.13331	
14.41	0.29660422	-146.54173	0.041765238	148.15405	0.041630819	147.97085	0.34413458	-162.27909	
14.51	0.3072062	-146.22438	0.041665944	146.78758	0.041536627	146.76038	0.35080885	-161.77684	
14.61	0.31757078	-145.85105	0.041458191	145.41782	0.041320003	145.31142	0.35620885	-161.04924	
14.71	0.32775078	-145.3506	0.041199159	143.97071	0.041123337	144.05121	0.36482544	-160.19997	
14.81	0.33738012	-144.96306	0.041054537	142.70003	0.04094597	142.63693	0.36881962	-158.876	
14.91	0.34790417	-144.26933	0.040855484	141.38985	0.04078499	141.40145	0.37371492	-158.21675	
15.01	0.35644633	-143.64023	0.040612111	140.15129	0.040565381	140.02149	0.37898961	-157.13773	
15.11	0.36479281	-142.97236	0.040297368	139.00546	0.040278815	139.02046	0.38527848	-156.16555	
15.21	0.37303006	-142.2354	0.040137191	137.99081	0.040077164	137.97621	0.38871655	-154.56898	
15.31	0.38122873	-141.47903	0.040213525	136.91228	0.040125656	137.04938	0.39213208	-153.78779	
15.41	0.3882085	-140.72973	0.040134812	135.66178	0.040051726	135.69298	0.39706963	-152.39506	
15.51	0.39466746	-139.91911	0.040112044	134.53257	0.040121281	134.55017	0.40045519	-151.18522	
15.61	0.39887018	-138.96431	0.040025515	133.02826	0.039896696	133.07366	0.40195579	-149.53899	
15.71	0.40222082	-137.91973	0.039802892	132.00224	0.039789147	131.95844	0.40256834	-148.66534	
15.81	0.40749598	-136.70108	0.039558337	130.93082	0.039576559	130.92082	0.40643194	-147.29264	
15.91	0.41242946	-135.72711	0.039623653	129.9345	0.039555285	129.943	0.40667344	-145.80172	
16.01	0.41432306	-134.71477	0.039684797	128.54565	0.039584409	128.58005	0.4057694	-144.32393	
16.11	0.41451225	-133.50949	0.0394668	127.23758	0.039371496	127.19148	0.40408353	-143.31705	
16.21	0.41572226	-132.01235	0.039132541	126.33301	0.038997616	126.29921	0.40563475	-141.92072	
16.31	0.41965269	-130.53234	0.03888749	125.78792	0.038865111	125.79622	0.40230815	-140.34929	
16.41	0.42219856	-129.32929	0.039138814	125.04775	0.038967959	125.05595	0.3983518	-139.17219	
16.51	0.42315887	-128.395	0.039364684	124.2579	0.039292239	124.1276	0.39291015	-138.14665	
16.61	0.42247334	-127.6921	0.039731654	123.37304	0.039599221	123.44334	0.38967433	-137.1679	
16.71	0.42050887	-126.95281	0.04000095	122.26762	0.039987136	122.41912	0.3840753	-135.86624	
16.81	0.41540565	-126.23099	0.040575364	121.31114	0.040519346	121.32374	0.37656145	-134.83635	
16.91	0.41080288	-125.57212	0.041241978	119.67371	0.041166077	119.61571	0.36844363	-134.08592	
17.01	0.40326432	-125.07692	0.041577612	118.09615	0.041453341	118.00535	0.36128881	-133.34361	
17.11	0.3945663	-124.79786	0.041819819	116.64068	0.041757275	116.70078	0.35105471	-132.47151	
17.21	0.38264591	-124.811	0.042290269	115.18813	0.042193004	115.19623	0.33977556	-131.87807	
17.31	0.36871874	-124.7899	0.042872891	113.58157	0.042818629	113.61436	0.32692149	-131.67528	
17.41	0.3499442	-124.83845	0.043684445	111.65215	0.043498763	111.73175	0.31537648	-131.50212	
17.51	0.32924889	-124.53331	0.044151016	109.48371	0.044054543	109.5793	0.29921356	-131.52602	
17.61	0.30896687	-123.52203	0.04472195	107.20905	0.04460882	107.27675	0.28408472	-132.2373	
17.71	0.29236151	-122.70971	0.045314212	104.76889	0.045314212	104.90739	0.26760503	-133.16945	
17.81	0.2726264	-123.4555	0.045963822	101.7798	0.045879231	101.7213	0.25231296	-134.27254	
17.91	0.24947154	-123.18824	0.045679148	98.191389	0.045668631	98.235789	0.23130396	-135.49333	
18.01	0.2314753	-121.47211	0.044809519	95.430511	0.044634463	95.512415	0.21276487	-139.08315	
18.11	0.2221225	-122.16579	0.044114368	93.921662	0.044083905	93.858762	0.19494184	-142.00958	
18.21	0.21153113	-125.7766	0.04416702	92.41885	0.044095889	92.294456	0.17577457	-147.78126	
18.31	0.19517843	-131.11641	0.044346566	90.572177	0.04430574	90.629376	0.15739677	-153.61021	
18.41	0.17524065	-138.68568	0.044636647	88.49296	0.044677777	88.42376	0.14297156	-164.90513	
18.51	0.15589082	-147.0177	0.045405651	86.637631	0.045228263	86.742531	0.13974792	-173.89126	
18.61	0.14391182	-157.4101	0.046158705	83.913311	0.046142765	84.006011	0.13437331	174.31043	
18.71	0.13998665	-169.27851	0.046771263	80.940558	0.046738966	80.889258	0.1366689	162.84316	
18.81	0.14110131	174.40175	0.047148248	77.456136	0.047023568	77.432841	0.14660725	149.10682	
18.91	0.15341739	158.94453	0.047234075	73.971024	0.047098324	74.029924	0.16712586	140.86082	
19.01	0.16808034	146.33576	0.046959439	70.863619	0.046975656	70.804424	0.18415788	133.13949	
19.11	0.18279263	135.7093	0.046707508	67.689325	0.046696748	67.861115	0.2083046	127.77701	
19.21	0.20468241	130.21569	0.046721174	64.55628	0.046602986	64.62388	0.23066795	123.04629	
19.31	0.23148223	126.97623	0.04663431	61.137749	0.046484221	61.197449	0.25900573	119.61272	
19.41	0.26310343	123.97699	0.046079351	57.813477	0.04600514	57.839177	0.28350222	116.9763	
19.51	0.29525886	120.72477	0.045451989	54.362127	0.045347452	54.336427	0.31078549	114.96143	
19.61	0.32721095	118.04745	0.044572346	51.162767	0.044510811	51.145772	0.33590345	113.83714	
19.71	0.35631115	115.71115	0.043522706	48.233059	0.043322743	48.175467	0.35860813	113.06792	
19.81	0.38245536	113.65521	0.042410284	46.07748	0.042288397	46.14028	0.38059517	111.90055	
19.91	0.40326738	112.8074	0.041672258	43.884459	0.041657862	43.80516	0.40551545	111.40045	
20.01	0.42299031	112.79788	0.041142056	41.642616	0.041033257	41.804716	0.42789277	111.37149	
