!
! Hittite Microwave Corporation
! 2 Elizabeth Drive
! Chelmsford, MA 01824
! http://www.hittite.com
! Tel: 978-250-3343
! Fax: 978-250-3373
! 
! Device:      HMC424LP3
! Description: 0.5 dB GaAs MMIC 6-Bit Digital Attenuator
! Frequency:    DC -  13.00 GHz
! Package:     LP3  - 3x3 mm Quad Flatpack No-Lead (QFN) Plastic Package: 16 pin
! Ports:       2 RF, 7 DC
!              Pad  1  = Ground
!              Pad  2  = RF IN   = Port 1
!              Pad  3  = Ground
!              Pad  4  = V6
!              Pad  5  = V5
!              Pad  6  = V4
!              Pad  7  = V3
!              Pad  8  = V2
!              Pad  9  = V1
!              Pad 10  = Ground
!              Pad 11  = RF OUT  = Port 2
!              Pad 12  = Ground
!              Pad 15  = VEE
!
! Control:     -5 Volt control voltage
! State:        44 
! Attenuation:  22.0 dB
! Voltages:    Vdd = -5.00 Volts  Idd =  -2.397 mA
!              V1  = 0.00 Volts  I1  =  29.0 uA
!              V2  = 0.00 Volts  I2  =  29.0 uA
!              V3  = -5.00 Volts  I3  =  -1.0 uA
!              V4  = -5.00 Volts  I4  =  -1.0 uA
!              V5  = 0.00 Volts  I5  =  29.0 uA
!              V6  = -5.00 Volts  I6  =  -1.0 uA
!
! Data:    The device was measured on evaluation board 105354-1. 
!          Data was collected using a calibrated network analyzer.
!          The evaluation circuit board was modeled and simulated.  This was use
!          to removed the evaluation board circuit from the measured data.
!          The reference plane is the edge of the package pin.
!
! Misc:    Lot xxxx, Unit 1
!          Application 20120001, Data collected in Application 20090083
!
! Date Measured:  2009-09-15
! Date:           2012-05-14  MJV
! Note: 
!   Hittite supplies this data as a sample of measured data at the package pin
!   for this product.  Your particular data for this product may vary.
!   Data was taken at 25 degrees C.
!   Hittite reserves the right to change this data at anytime.
!
# GHz S MA R 50

0.01	0.010529544	144.48165	0.059939552	-2.054506	0.061498354	-2.169506	0.043506765	7.5423905	
0.11	0.011675956	-176.24241	0.059480507	-2.1225787	0.059425749	-2.2123787	0.040677688	0.80801876	
0.21	0.011258405	-169.35617	0.059517496	-3.5196086	0.059305456	-3.5480086	0.040102634	-7.7450362	
0.31	0.010076215	-163.00955	0.059210501	-5.0134456	0.059203685	-5.0306456	0.04528535	-10.105478	
0.41	0.0097154082	-154.81155	0.059275963	-6.5514843	0.059166873	-6.5666843	0.046015812	-10.772309	
0.51	0.0092740982	-143.06866	0.059183041	-8.026791	0.059060522	-8.059191	0.045195732	-12.88655	
0.61	0.0098353529	-132.57499	0.05911556	-9.466025	0.058966019	-9.458225	0.046576568	-19.38518	
0.71	0.0099684366	-115.59915	0.058998591	-10.906013	0.059018972	-10.923813	0.052954666	-20.993656	
0.81	0.01062886	-105.73095	0.059006001	-12.351908	0.058917754	-12.330908	0.052874625	-19.8158	
0.91	0.011841596	-92.319167	0.058970155	-13.803548	0.058881962	-13.809448	0.054134538	-24.543122	
1.01	0.012548307	-84.27811	0.05885886	-15.195385	0.058818216	-15.215185	0.057643011	-27.94201	
1.11	0.014426803	-77.096498	0.058759473	-16.63287	0.058739182	-16.69927	0.064162591	-27.317826	
1.21	0.015551547	-71.202892	0.058806335	-18.092956	0.058711627	-18.078556	0.062807977	-25.734379	
1.31	0.017440305	-66.761707	0.058700358	-19.572498	0.0586936	-19.527498	0.065263739	-30.363271	
1.41	0.018711271	-61.093702	0.058782709	-20.948515	0.058593521	-20.940915	0.069822128	-30.841405	
1.51	0.020229168	-58.732027	0.058567544	-22.400188	0.058527101	-22.355388	0.07390424	-29.463941	
1.61	0.022006297	-54.512937	0.058585002	-23.79297	0.058510855	-23.83087	0.072065875	-28.486154	
1.71	0.023139822	-52.565734	0.058606564	-25.183128	0.058364163	-25.257228	0.073809201	-32.728577	
1.81	0.024510524	-50.147733	0.058477719	-26.531278	0.058450796	-26.675378	0.07812598	-32.365087	
1.91	0.025067628	-48.410691	0.058411986	-28.057514	0.058385092	-28.030314	0.079384718	-31.730657	
2.01	0.025930337	-47.305638	0.058388782	-29.453794	0.058247785	-29.549494	0.07726216	-31.909475	
2.11	0.026440831	-46.679762	0.058316112	-30.794669	0.058222193	-30.830369	0.079131589	-36.372201	
2.21	0.027177566	-47.083555	0.058294252	-32.256799	0.058220474	-32.215799	0.083718792	-35.849783	
2.31	0.027682593	-46.984905	0.058269941	-33.658261	0.058229703	-33.682161	0.082864263	-35.748691	
2.41	0.028007611	-48.15537	0.058099686	-35.103135	0.058026154	-35.136535	0.081041845	-37.532532	
2.51	0.028345608	-49.155871	0.058160893	-36.521707	0.058033808	-36.493007	0.083755814	-41.681909	
2.61	0.028331894	-50.722692	0.058091497	-37.91912	0.058004617	-37.90862	0.087754644	-40.988608	
2.71	0.028860009	-52.647751	0.058060529	-39.333251	0.057940333	-39.395751	0.085407443	-41.618963	
2.81	0.028385585	-55.227697	0.057982748	-40.828009	0.057889366	-40.745409	0.08490427	-44.438648	
2.91	0.029292814	-58.304435	0.058001433	-42.126025	0.057934695	-42.234225	0.088076663	-47.772274	
3.01	0.029436941	-61.487369	0.057891157	-43.620658	0.057811233	-43.634458	0.091403714	-47.075658	
3.11	0.030177067	-64.999504	0.057866454	-44.963707	0.057726719	-44.995307	0.087971483	-48.324579	
3.21	0.030406468	-68.368304	0.057799706	-46.389004	0.057719908	-46.426104	0.088482247	-51.985369	
3.31	0.031353604	-72.544895	0.057768152	-47.850402	0.057741555	-47.811302	0.091806077	-54.391825	
3.41	0.032401995	-76.778699	0.057715097	-49.245903	0.057509479	-49.260203	0.093902609	-54.084969	
3.51	0.034060041	-80.614526	0.057567664	-50.593899	0.057514667	-50.680299	0.09036674	-56.405847	
3.61	0.035627834	-84.684823	0.057502428	-52.01361	0.057495808	-52.08521	0.092821866	-60.777344	
3.71	0.038111444	-87.862942	0.057485302	-53.53327	0.057372902	-53.42527	0.096755873	-62.548665	
3.81	0.040417787	-90.466738	0.057415412	-54.93572	0.057408802	-54.93442	0.097803859	-62.715448	
3.91	0.043036357	-93.170545	0.057337714	-56.284272	0.057251962	-56.310072	0.095433101	-66.346769	
4.01	0.050772654	-89.904256	0.057266581	-57.643033	0.057259988	-57.725233	0.10776405	-68.169958	
4.11	0.053204268	-90.989666	0.057187701	-59.024928	0.057187701	-59.055428	0.11191103	-68.447617	
4.21	0.056009713	-91.907003	0.057222876	-60.495892	0.057117565	-60.484992	0.11300384	-68.873031	
4.31	0.059294765	-91.99467	0.057148609	-61.886243	0.056971239	-61.874943	0.11293894	-71.548511	
4.41	0.061701843	-91.887287	0.056998247	-63.350005	0.056965446	-63.306205	0.12008429	-73.328623	
4.51	0.064202044	-91.680266	0.056979023	-64.698973	0.056900358	-64.764373	0.12318919	-72.370066	
4.61	0.066794779	-91.505877	0.056866727	-66.130469	0.056814375	-66.134269	0.1236495	-72.562077	
4.71	0.069824931	-90.814945	0.056841086	-67.489605	0.056756076	-67.541405	0.12413345	-74.324824	
4.81	0.071943704	-90.201914	0.056829764	-68.884756	0.056699059	-68.881756	0.13128023	-75.127677	
4.91	0.074707841	-89.364504	0.056669906	-70.312241	0.0565591	-70.352241	0.13279171	-73.412457	
5.01	0.076766761	-88.439545	0.056535476	-71.615017	0.056444425	-71.661117	0.13195263	-73.873201	
5.11	0.079474478	-86.965438	0.056554784	-73.062884	0.056476704	-73.041984	0.13301644	-74.993097	
5.21	0.081178147	-85.809953	0.056474525	-74.51962	0.056377081	-74.47162	0.13884788	-75.460021	
5.31	0.083659036	-84.334709	0.056425194	-75.858422	0.056269501	-75.939022	0.13973845	-73.302529	
5.41	0.085372232	-82.629618	0.056337395	-77.305399	0.056233714	-77.298799	0.13826166	-74.097048	
5.51	0.087443165	-80.960444	0.056260826	-78.653685	0.056105586	-78.704585	0.14079238	-74.705141	
5.61	0.089106068	-78.856478	0.056053877	-80.089146	0.056040971	-80.088746	0.1453764	-74.569161	
5.71	0.090206031	-77.073502	0.056088661	-81.445078	0.05587597	-81.503478	0.14543375	-72.243407	
5.81	0.091814432	-74.623348	0.056043743	-82.74661	0.055921284	-82.84681	0.1430449	-72.825938	
5.91	0.092508688	-72.64425	0.05586444	-84.159576	0.055825864	-84.250176	0.14688299	-72.98507	
6.01	0.09373124	-70.201091	0.055872818	-85.639939	0.055718649	-85.627739	0.15039902	-71.643761	
6.11	0.09461463	-67.850721	0.055702535	-86.952012	0.055619228	-87.034012	0.14929881	-69.256773	
6.21	0.095342117	-64.742571	0.055709507	-88.386035	0.055619786	-88.357435	0.14584004	-69.514551	
6.31	0.095680726	-62.430397	0.055659542	-89.748311	0.055589099	-89.805211	0.14912125	-69.010701	
6.41	0.096335565	-59.137644	0.055559739	-91.155323	0.055483033	-91.106223	0.14997339	-67.017118	
6.51	0.096186681	-56.081523	0.055489828	-92.558711	0.055406839	-92.611711	0.14761698	-64.431614	
6.61	0.095836552	-52.690603	0.055564822	-94.047606	0.055443409	-93.975606	0.14255932	-64.181744	
6.71	0.095356153	-49.746844	0.055484982	-95.384863	0.055389246	-95.477963	0.14421438	-63.530119	
6.81	0.09515642	-46.501136	0.055396357	-96.870344	0.055307141	-96.905644	0.14220858	-61.109227	
6.91	0.094444	-42.958678	0.055361788	-98.279149	0.055221743	-98.303149	0.13819636	-59.128456	
7.01	0.093318384	-39.685447	0.055360532	-99.798054	0.055265011	-99.826854	0.13188936	-58.608487	
7.11	0.092431707	-36.205587	0.055308278	-101.29597	0.055251	-101.23957	0.13249238	-58.476603	
7.21	0.090894388	-32.576917	0.055189481	-102.69217	0.055176774	-102.67337	0.12875091	-55.448925	
7.31	0.089688805	-28.55387	0.055214799	-104.08413	0.055125875	-104.17233	0.12230171	-54.515654	
7.41	0.088064796	-24.969154	0.055243949	-105.56556	0.055186737	-105.62606	0.11661217	-54.474238	
7.51	0.086682183	-20.744316	0.055231393	-107.08972	0.055129746	-107.08132	0.11543232	-54.568019	
7.61	0.084580078	-16.973095	0.055218341	-108.56352	0.055161156	-108.61742	0.11125193	-51.669286	
7.71	0.082793301	-12.736352	0.055284592	-110.17832	0.055170142	-110.12852	0.10326283	-51.023807	
7.81	0.080142243	-8.7705545	0.055168385	-111.77069	0.055155684	-111.73789	0.097330659	-51.389844	
7.91	0.078276866	-4.3987468	0.055208268	-113.32159	0.055093976	-113.28059	0.094219708	-51.711173	
8.01	0.07592731	0.26510518	0.055272973	-114.86458	0.055088738	-114.91678	0.088111942	-48.81404	
8.11	0.073034789	5.0873752	0.055172523	-116.5227	0.055140773	-116.4618	0.078571169	-49.425443	
8.21	0.070178578	9.9554304	0.055198858	-118.05836	0.055084586	-118.09296	0.071835885	-50.943303	
8.31	0.067546723	15.416762	0.055139639	-119.6029	0.055044498	-119.6163	0.067260009	-51.850451	
8.41	0.064761627	21.322689	0.055068653	-121.23146	0.055017956	-121.22866	0.05934053	-49.508986	
8.51	0.061834999	27.684537	0.05519634	-122.90555	0.055082074	-122.87425	0.048187472	-53.578913	
8.61	0.05926333	34.40249	0.055111445	-124.54937	0.055016353	-124.46187	0.041938037	-61.065777	
8.71	0.056911017	42.162762	0.055195118	-126.15729	0.055042818	-126.15829	0.036550064	-67.27598	
8.81	0.054646562	50.448714	0.055144689	-127.82803	0.05499886	-127.80023	0.027937254	-73.925627	
8.91	0.052492958	59.421929	0.055178771	-129.48449	0.055083563	-129.58479	0.023389798	-103.29611	
9.01	0.051259469	67.910618	0.055228487	-131.20409	0.055038063	-131.19559	0.026988389	-122.13683	
9.11	0.052042212	77.764471	0.055086707	-132.85945	0.055010654	-132.96995	0.031718497	-137.01451	
9.21	0.052215718	88.201381	0.055084515	-134.56873	0.055002132	-134.56643	0.035723447	-148.71376	
9.31	0.054646705	97.172468	0.055007569	-136.39685	0.054956929	-136.31035	0.047653592	-160.36178	
9.41	0.057884519	107.27033	0.054931949	-138.12357	0.054849795	-138.12757	0.057457096	-159.30447	
9.51	0.061636458	115.17728	0.054664297	-139.7876	0.054475819	-139.8055	0.063221256	-163.48369	
9.61	0.066076794	122.67803	0.054506076	-141.31256	0.054412029	-141.27066	0.073728745	-166.37613	
9.71	0.070192633	129.87291	0.054425438	-142.9031	0.054312767	-142.9339	0.084889598	-167.22895	
9.81	0.074909526	136.15293	0.054254116	-144.57996	0.054160503	-144.49906	0.093945315	-166.26736	
9.91	0.080070509	141.50128	0.053988432	-145.85674	0.054007082	-145.92264	0.10044863	-167.54687	
10.01	0.085254305	146.32482	0.053990009	-147.50409	0.053890648	-147.56079	0.11118188	-168.5391	
10.11	0.091385678	151.05357	0.053821002	-149.15813	0.053697217	-149.14443	0.12211685	-168.35938	
10.21	0.096837258	155.19441	0.05367422	-150.58366	0.053519955	-150.63786	0.13062524	-166.81237	
10.31	0.10297267	159.37461	0.053464874	-152.0383	0.053378768	-152.0314	0.13587683	-167.23798	
10.41	0.10803644	162.40171	0.053363104	-153.42965	0.05321586	-153.37455	0.14688482	-167.39993	
10.51	0.11468495	165.59436	0.05329328	-154.79846	0.053133993	-154.70326	0.15689466	-166.49081	
10.61	0.12033238	168.68821	0.053324266	-156.19888	0.053250646	-156.18698	0.16419183	-165.14197	
10.71	0.12573311	171.48585	0.053225224	-157.70512	0.053139504	-157.63712	0.16951966	-165.46683	
10.81	0.13112711	173.96082	0.053147743	-159.17505	0.053074367	-159.10875	0.17984433	-165.20351	
10.91	0.13610529	176.3707	0.053138873	-160.61835	0.053016657	-160.61885	0.18734439	-163.90235	
11.01	0.14141575	178.35355	0.053032616	-162.08666	0.052941111	-162.05816	0.19205734	-162.91569	
11.11	0.14599269	-179.35485	0.052949905	-163.41695	0.052803801	-163.53525	0.19597352	-162.89172	
11.21	0.15013273	-177.73802	0.05285778	-164.96018	0.052784804	-164.98438	0.20371584	-162.59865	
11.31	0.15420094	-176.17041	0.052762771	-166.43038	0.05274455	-166.40088	0.20867478	-161.45765	
11.41	0.15851508	-174.81158	0.052650773	-167.784	0.052590191	-167.8327	0.21133989	-160.64952	
11.51	0.16211906	-173.29739	0.052590716	-169.33204	0.052499973	-169.28564	0.21276574	-160.87734	
11.61	0.16537471	-172.26648	0.052530736	-170.75625	0.052373728	-170.71985	0.21947473	-160.99846	
11.71	0.16905643	-171.15485	0.052434356	-172.22634	0.052319783	-172.28444	0.22200494	-160.22373	
11.81	0.17210434	-170.30502	0.0522798	-173.62388	0.052177578	-173.61038	0.2236522	-160.37082	
11.91	0.17529808	-169.52852	0.052210077	-175.15269	0.052143999	-175.12809	0.22564192	-160.63147	
12.01	0.17854796	-168.84396	0.052135792	-176.70572	0.051962014	-176.61982	0.2308851	-160.96077	
12.11	0.18173389	-168.27795	0.051971617	-178.15691	0.051852086	-178.08361	0.23268449	-160.36179	
12.21	0.18499828	-167.87149	0.051885656	-179.5403	0.05179613	-179.5214	0.23373737	-161.00494	
12.31	0.18852072	-167.59728	0.051751612	178.85943	0.051626642	178.81403	0.23730069	-161.52238	
12.41	0.19172599	-167.70829	0.05142926	177.09403	0.051334611	177.08023	0.24276826	-161.98981	
12.51	0.19398464	-167.86223	0.050961403	175.72055	0.050867615	175.69425	0.24449629	-161.42087	
12.61	0.19592531	-167.69199	0.050547099	174.73301	0.05054128	174.72211	0.24560412	-162.42836	
12.71	0.19933983	-167.00962	0.050595814	173.53194	0.050485259	173.62844	0.25115174	-162.88865	
12.81	0.20282196	-166.69827	0.050575425	172.31373	0.050511415	172.28443	0.25574941	-163.18107	
12.91	0.20744687	-166.40239	0.050695202	170.85395	0.050537861	170.86885	0.25914903	-162.83469	
13.01	0.21127178	-166.24076	0.050671235	169.33311	0.050572158	169.41881	0.26128425	-163.66562	
13.11	0.21670951	-166.20096	0.050561836	167.85128	0.050509472	167.91388	0.26750702	-164.09482	
13.21	0.22164598	-166.00669	0.050429182	166.44	0.050342169	166.3904	0.2719753	-164.25193	
13.31	0.22621711	-165.9418	0.050170503	164.80887	0.050118545	164.86687	0.27633185	-164.23041	
13.41	0.23160854	-165.86623	0.050063827	163.61089	0.049896955	163.57169	0.27987587	-164.79534	
13.51	0.23732753	-165.58486	0.049913187	162.28979	0.049775462	162.19439	0.28747285	-165.08749	
13.61	0.24314731	-165.42601	0.04983688	160.82285	0.049699366	160.86405	0.29336224	-164.95716	
13.71	0.25028654	-165.20766	0.049738468	159.32096	0.049681238	159.40096	0.29828287	-164.78382	
13.81	0.25677769	-164.69641	0.049600955	157.93888	0.049481179	157.99498	0.30349896	-165.14474	
13.91	0.26341548	-164.40896	0.049365469	156.5659	0.049274618	156.5233	0.31278528	-164.89761	
14.01	0.27107285	-164.01427	0.049232172	155.12851	0.049164202	155.11771	0.31795275	-164.37717	
14.11	0.27808811	-163.35886	0.04905011	153.80709	0.048926031	153.74669	0.32450279	-163.99572	
14.21	0.28465886	-162.79814	0.048906127	152.46952	0.048788029	152.42652	0.33043044	-163.83992	
14.31	0.29255288	-162.18327	0.048665731	151.04041	0.048564984	151.05931	0.33984131	-163.19363	
14.41	0.29981232	-161.39334	0.048476103	149.73819	0.0484259	149.83929	0.34410439	-162.30819	
14.51	0.30753178	-160.56571	0.048349621	148.39746	0.048243974	148.45936	0.35087251	-161.82165	
14.61	0.31490161	-159.65791	0.048211156	147.07561	0.048094736	147.17631	0.35622518	-161.07156	
14.71	0.32202855	-158.65577	0.048001101	145.81168	0.047907245	145.83888	0.36487803	-160.23443	
14.81	0.32901793	-157.82655	0.047790599	144.58257	0.047741105	144.56607	0.36883967	-158.887	
14.91	0.33629456	-156.61193	0.047616266	143.24141	0.047534106	143.17801	0.37380877	-158.2473	
15.01	0.34203343	-155.54093	0.047436534	142.03913	0.047338332	141.94563	0.3789894	-157.16644	
15.11	0.34753097	-154.49248	0.047187299	140.89588	0.047057095	140.88548	0.38530135	-156.18645	
15.21	0.35306543	-153.34871	0.046994136	139.82282	0.04689685	139.80492	0.38885868	-154.59247	
15.31	0.35850872	-152.154	0.047028263	138.68145	0.046947118	138.74805	0.39208052	-153.81785	
15.41	0.36285931	-151.05733	0.047012653	137.55015	0.046936939	137.61415	0.39700674	-152.42967	
15.51	0.36696306	-149.84484	0.046939173	136.30782	0.046890561	136.37642	0.40045472	-151.21097	
15.61	0.36864152	-148.56865	0.046880846	134.92492	0.046729963	134.99262	0.40197513	-149.57068	
15.71	0.3696075	-147.26361	0.046692697	133.78241	0.046596035	133.85371	0.40244057	-148.7066	
15.81	0.37225358	-145.75896	0.04657452	132.89082	0.046478102	132.91732	0.40644046	-147.3076	
15.91	0.37442249	-144.39066	0.046647885	131.84262	0.046588846	131.80582	0.40663054	-145.82998	
16.01	0.37423211	-143.10202	0.046655932	130.51391	0.046629083	130.48661	0.40568344	-144.37211	
16.11	0.37220376	-141.69117	0.046518793	129.14368	0.046481318	129.25718	0.40407657	-143.35589	
16.21	0.37078275	-139.88792	0.046233199	128.28862	0.046180002	128.19642	0.40554848	-141.96558	
16.31	0.37173067	-138.03642	0.046249844	127.56324	0.0461063	127.54454	0.40222526	-140.40251	
16.41	0.37180569	-136.44313	0.046458682	126.72684	0.046335823	126.71064	0.39848306	-139.23247	
16.51	0.37024192	-135.22781	0.046823681	125.65066	0.046662237	125.69616	0.39274058	-138.20257	
16.61	0.36746401	-134.21858	0.047175424	124.6427	0.047039838	124.572	0.3895836	-137.23847	
16.71	0.36380135	-133.18344	0.047535259	123.5255	0.047436852	123.444	0.38388528	-135.90689	
16.81	0.35691741	-132.2502	0.048097364	122.28152	0.047970172	122.21662	0.37638592	-134.88137	
16.91	0.35034549	-131.3291	0.048634913	120.65153	0.048623716	120.64983	0.36813608	-134.15391	
17.01	0.34105728	-130.58176	0.048991362	118.99379	0.048934991	118.95929	0.3610388	-133.43411	
17.11	0.33107784	-130.11478	0.049382513	117.44012	0.049149962	117.41782	0.35078833	-132.54707	
17.21	0.3180506	-129.96989	0.049782641	115.85029	0.049673865	115.83849	0.339265	-131.94288	
17.31	0.3031051	-129.8342	0.050373904	114.11511	0.050229122	114.18171	0.32661886	-131.73471	
17.41	0.28352296	-129.78436	0.050861544	112.33444	0.050861539	112.33253	0.31502338	-131.58454	
17.51	0.26185852	-129.44308	0.05136638	110.18496	0.051260041	110.20626	0.29872141	-131.60272	
17.61	0.2397985	-128.21392	0.051900983	108.1529	0.051823361	108.1175	0.28340029	-132.32154	
17.71	0.22152314	-126.88482	0.05261203	105.88999	0.052509159	105.84139	0.26719681	-133.21993	
17.81	0.20054434	-127.59283	0.053142465	102.95327	0.05305077	102.91507	0.25167564	-134.33782	
17.91	0.17681506	-126.93284	0.052901122	99.722111	0.052755153	99.736411	0.2306803	-135.52807	
18.01	0.15682792	-124.12751	0.052029606	97.2052	0.051933854	97.280297	0.21237331	-139.17494	
18.11	0.14561759	-124.09176	0.051600517	95.668713	0.051529274	95.615613	0.19439184	-142.17406	
18.21	0.13350205	-128.38434	0.051818834	93.806214	0.051794974	93.86371	0.17521889	-147.94624	
18.31	0.11679694	-135.45436	0.052238937	91.680472	0.05200491	91.784762	0.15692602	-153.81238	
18.41	0.097916453	-147.05327	0.052420516	89.437981	0.0523602	89.467081	0.14242664	-165.08947	
18.51	0.081869135	-162.07132	0.05304577	87.45159	0.052844618	87.48139	0.13901051	-174.2096	
18.61	0.076430086	178.79751	0.053837567	84.830432	0.053645763	84.947132	0.13396728	173.89565	
18.71	0.082258413	160.52972	0.054416332	81.777603	0.054253688	81.792603	0.13642297	162.58909	
18.81	0.0988459	140.76192	0.054538727	78.253349	0.054438353	78.216754	0.14631818	148.80471	
18.91	0.12516724	127.86659	0.054465434	74.843449	0.054358941	74.966147	0.16696894	140.55625	
19.01	0.15040637	118.61789	0.05413365	71.86326	0.054015371	71.930656	0.18408381	132.94817	
19.11	0.17384807	111.24041	0.053665838	69.012949	0.053523921	69.042752	0.20803594	127.57391	
19.21	0.19723562	108.60921	0.053532976	66.195136	0.053416003	66.178636	0.23046643	122.88119	
19.31	0.22246515	107.93972	0.053433283	62.89216	0.053439435	62.91786	0.25900357	119.53501	
19.41	0.25171172	107.42019	0.053090935	59.708499	0.052950537	59.650799	0.28342598	116.90867	
19.51	0.28201929	106.30964	0.052335059	56.277748	0.052184643	56.354748	0.31072747	114.84548	
19.61	0.31221216	105.48041	0.051327229	53.186851	0.051309505	53.219249	0.33598181	113.74302	
19.71	0.33943955	104.49959	0.050211737	50.400516	0.049981042	50.52341	0.35868638	112.98512	
19.81	0.36484143	103.60349	0.048799866	48.255552	0.048811098	48.302054	0.38064762	111.88065	
19.91	0.38387389	103.60821	0.048048238	46.178272	0.047965334	46.313069	0.40553904	111.34537	
20.01	0.40138026	104.28124	0.047419903	44.328154	0.047523745	44.326954	0.42789455	111.23878	
