!
! Hittite Microwave Corporation
! 2 Elizabeth Drive
! Chelmsford, MA 01824
! http://www.hittite.com
! Tel: 978-250-3343
! Fax: 978-250-3373
! 
! Device:      HMC424LP3
! Description: 0.5 dB GaAs MMIC 6-Bit Digital Attenuator
! Frequency:    DC -  13.00 GHz
! Package:     LP3  - 3x3 mm Quad Flatpack No-Lead (QFN) Plastic Package: 16 pin
! Ports:       2 RF, 7 DC
!              Pad  1  = Ground
!              Pad  2  = RF IN   =  Port 1
!              Pad  3  = Ground
!              Pad  4  = V6
!              Pad  5  = V5
!              Pad  6  = V4
!              Pad  7  = V3
!              Pad  8  = V2
!              Pad  9  = V1
!              Pad 10  = Ground
!              Pad 11  = RF OUT  = Port 2
!              Pad 12  = Ground
!              Pad 15  = VEE
!
! Control:     -5 Volt control voltage
! State:        50 
! Attenuation:  25.0 dB
! Voltages:    Vdd = -5.00 Volts  Idd =  -2.390 mA
!              V1  = 0.00 Volts  I1  =  29.0 uA
!              V2  = -5.00 Volts  I2  =  -1.0 uA
!              V3  = 0.00 Volts  I3  =  30.0 uA
!              V4  = 0.00 Volts  I4  =  30.0 uA
!              V5  = -5.00 Volts  I5  =  -1.0 uA
!              V6  = -5.00 Volts  I6  =  -1.0 uA
!
! Data:    The device was measured on evaluation board 105354-1. 
!          Data was collected using a calibrated network analyzer.
!          The evaluation circuit board was modeled and simulated.  This was use
!          to removed the evaluation board circuit from the measured data.
!          The reference plane is the edge of the package pin.
!
! Misc:    Lot xxxx, Unit 1
!          Application 20120001, Data collected in Application 20090083
!
! Date Measured:  2009-09-15
! Date:           2012-05-14  MJV
! Note: 
!   Hittite supplies this data as a sample of measured data at the package pin
!   for this product.  Your particular data for this product may vary.
!   Data was taken at 25 degrees C.
!   Hittite reserves the right to change this data at anytime.
!
# GHz S MA R 50

0.01	0.014192234	29.353625	0.043768636	0.14556705	0.04162584	-0.91663295	0.043032063	6.6280465	
0.11	0.0092633128	-12.011746	0.04304436	-2.0407264	0.043064187	-2.0352264	0.039546934	0.67056535	
0.21	0.010455083	-22.97206	0.043006426	-3.3605322	0.042966834	-3.5662322	0.038580183	-7.9227837	
0.31	0.012585534	-28.015389	0.042872947	-4.851835	0.042769418	-4.743935	0.043927832	-10.215094	
0.41	0.014090266	-35.114948	0.042895179	-6.2447719	0.042826096	-6.2849719	0.044600001	-10.865648	
0.51	0.016478703	-38.984996	0.042847069	-7.5918531	0.042812552	-7.6441531	0.043894898	-13.175321	
0.61	0.018699039	-44.331203	0.042797546	-9.0102984	0.042748302	-9.0411984	0.04527674	-19.753705	
0.71	0.021885784	-45.593572	0.042726983	-10.396667	0.04267782	-10.487667	0.051616516	-21.154968	
0.81	0.02421954	-46.996635	0.042785755	-11.729379	0.042618602	-11.847779	0.051488373	-20.001506	
0.91	0.0274647	-47.28462	0.042660628	-13.135056	0.042542915	-13.196056	0.052806007	-24.935092	
1.01	0.029443673	-47.323219	0.042702156	-14.595862	0.042599039	-14.549562	0.056253098	-28.133462	
1.11	0.03226645	-48.236656	0.042648931	-15.955552	0.042599857	-15.970152	0.062822701	-27.502045	
1.21	0.034206651	-48.180387	0.042549751	-17.344506	0.042471444	-17.206606	0.061531753	-25.90348	
1.31	0.036760149	-48.598233	0.04248709	-18.564812	0.042496874	-18.682512	0.063926478	-30.597416	
1.41	0.038709531	-47.949702	0.042472689	-19.950444	0.042433588	-19.949944	0.068534836	-30.995674	
1.51	0.040460323	-48.552598	0.042463206	-21.288074	0.0423753	-21.288674	0.072567396	-29.637484	
1.61	0.04263238	-48.054238	0.042416793	-22.653675	0.04234848	-22.694275	0.070800077	-28.499284	
1.71	0.043884902	-48.292608	0.042358959	-24.109874	0.042334582	-24.039674	0.07247761	-32.895768	
1.81	0.045491082	-48.321223	0.04235812	-25.424443	0.04225097	-25.284443	0.076877513	-32.476986	
1.91	0.04605409	-48.46517	0.042261733	-26.657571	0.042213106	-26.591971	0.078139153	-31.869539	
2.01	0.046970943	-48.864997	0.042254676	-28.051708	0.042176912	-28.056908	0.075931074	-32.041834	
2.11	0.047476096	-49.732231	0.042226485	-29.431779	0.04210997	-29.374979	0.077811944	-36.529826	
2.21	0.048212862	-50.957258	0.042205978	-30.737347	0.04204593	-30.670647	0.08233529	-35.950066	
2.31	0.048613764	-52.032218	0.042237178	-32.109504	0.042052798	-32.012604	0.081621433	-35.833161	
2.41	0.049021879	-53.603855	0.042138228	-33.425769	0.04195911	-33.483069	0.079798607	-37.619135	
2.51	0.049328997	-55.246015	0.042066648	-34.772831	0.04204728	-34.766931	0.082362221	-41.761272	
2.61	0.049267072	-57.191505	0.042070036	-36.172392	0.042011954	-36.061992	0.086385549	-41.017288	
2.71	0.049833452	-59.222563	0.042009126	-37.502816	0.041951128	-37.466416	0.084175228	-41.630222	
2.81	0.049535237	-61.898202	0.041938723	-38.71003	0.041933894	-38.84643	0.083578149	-44.505657	
2.91	0.050478226	-64.523539	0.04188502	-40.163612	0.04184646	-40.231012	0.086695841	-47.923521	
3.01	0.050667393	-67.436535	0.041921273	-41.470661	0.041824857	-41.431861	0.09011756	-47.149795	
3.11	0.051646525	-70.45629	0.04186977	-42.875242	0.041797526	-42.885542	0.086644352	-48.325336	
3.21	0.051913484	-73.480476	0.041802398	-44.202682	0.041735075	-44.151682	0.087200417	-52.092025	
3.31	0.05307489	-76.8256	0.041822914	-45.587588	0.041707513	-45.589188	0.09044458	-54.504764	
3.41	0.054225268	-80.074914	0.041669025	-46.88011	0.041645046	-46.99541	0.092680873	-54.23144	
3.51	0.055996893	-83.337951	0.041600759	-48.191492	0.041624714	-48.319792	0.089189794	-56.570785	
3.61	0.057711602	-86.803453	0.041615702	-49.533919	0.041572604	-49.474419	0.091609016	-60.934378	
3.71	0.060167341	-89.495004	0.041617441	-50.832353	0.041440537	-50.978553	0.095512769	-62.747024	
3.81	0.06268812	-91.912969	0.04148992	-52.344892	0.041470818	-52.373292	0.096536109	-62.833938	
3.91	0.06539583	-94.421156	0.041433435	-53.553243	0.041419127	-53.605143	0.09412985	-66.484054	
4.01	0.072980814	-92.838029	0.041534463	-54.920991	0.041362673	-54.806191	0.10654502	-68.299648	
4.11	0.075466561	-94.158249	0.041395692	-56.272578	0.04129573	-56.268878	0.11083049	-68.616874	
4.21	0.07825114	-95.416357	0.041359066	-57.603719	0.041263943	-57.626219	0.11175372	-68.937077	
4.31	0.08153655	-96.036957	0.041386208	-58.978996	0.04126251	-58.962196	0.11177229	-71.726263	
4.41	0.083717452	-96.427784	0.041220403	-60.360236	0.041087738	-60.349236	0.118819	-73.446306	
4.51	0.086124721	-96.749213	0.041201976	-61.694762	0.041121415	-61.720162	0.12187762	-72.478127	
4.61	0.088492142	-97.137032	0.041102347	-63.025469	0.041092884	-63.062769	0.12241806	-72.658703	
4.71	0.091147979	-96.960097	0.041122416	-64.335759	0.04104201	-64.355859	0.12288526	-74.430563	
4.81	0.093033696	-96.942241	0.041053836	-65.592341	0.040916996	-65.718441	0.12995969	-75.210996	
4.91	0.095310199	-96.582295	0.040930264	-67.029264	0.040883168	-67.085164	0.1314911	-73.468768	
5.01	0.096950754	-96.264309	0.040891304	-68.286948	0.040839551	-68.268148	0.13077085	-73.928429	
5.11	0.099018374	-95.336576	0.040865024	-69.61236	0.040841507	-69.60046	0.13179487	-75.028492	
5.21	0.10011179	-94.806604	0.040847375	-70.942325	0.040729976	-70.992525	0.13768722	-75.498303	
5.31	0.10178777	-93.852614	0.040725746	-72.263256	0.040744506	-72.336356	0.13860418	-73.348904	
5.41	0.10251298	-92.707248	0.04068488	-73.691076	0.040633389	-73.577176	0.13705506	-74.151689	
5.51	0.10358562	-91.620088	0.040638472	-75.014445	0.040582366	-74.997945	0.13962754	-74.716029	
5.61	0.10402533	-90.067122	0.040563438	-76.345709	0.040535427	-76.361909	0.14429893	-74.576655	
5.71	0.10387554	-88.868631	0.040524262	-77.641043	0.040431059	-77.725343	0.14427805	-72.241222	
5.81	0.10399537	-86.957887	0.040516216	-78.91295	0.040348638	-79.02335	0.14191821	-72.837782	
5.91	0.10322113	-85.501631	0.040392828	-80.237145	0.040332418	-80.272945	0.14571135	-72.966323	
6.01	0.10278064	-83.542633	0.04031297	-81.521901	0.040294409	-81.558801	0.14921929	-71.655012	
6.11	0.10187948	-81.651441	0.040253027	-82.886586	0.040160448	-82.901086	0.14805987	-69.233277	
6.21	0.10053488	-78.985213	0.040232686	-84.175978	0.040172516	-84.210478	0.14457127	-69.439151	
6.31	0.099001534	-77.033941	0.040287539	-85.502615	0.040125526	-85.535315	0.1478389	-68.898079	
6.41	0.097301113	-74.038952	0.040135567	-86.795328	0.040038648	-86.834928	0.14875714	-66.926247	
6.51	0.094799051	-71.201504	0.040194672	-88.211466	0.040092994	-88.251466	0.14639913	-64.323394	
6.61	0.091916528	-68.060437	0.040132223	-89.576815	0.040053753	-89.559315	0.14135581	-64.024405	
6.71	0.089182516	-65.176771	0.040142318	-90.934642	0.040013122	-90.971042	0.1429807	-63.355277	
6.81	0.086530299	-61.789072	0.040062824	-92.324639	0.040039769	-92.337539	0.14104601	-60.925813	
6.91	0.083230732	-58.007065	0.040021883	-93.736517	0.03993903	-93.885317	0.13716196	-58.9001	
7.01	0.079793371	-54.4528	0.040055728	-95.182201	0.039968203	-95.172801	0.1307847	-58.329631	
7.11	0.076583529	-50.328753	0.040010319	-96.539311	0.039932088	-96.573911	0.13135047	-58.183262	
7.21	0.072756017	-45.916052	0.039921196	-97.878896	0.039774391	-97.940996	0.12762828	-55.131445	
7.31	0.069248029	-40.740369	0.039903586	-99.338282	0.039825563	-99.304282	0.12127252	-54.178557	
7.41	0.065556616	-35.692542	0.039974857	-100.74104	0.039928861	-100.65144	0.11548916	-54.048021	
7.51	0.062429849	-29.594332	0.03996897	-102.24598	0.039900006	-102.17228	0.11442732	-54.133492	
7.61	0.058954929	-23.720928	0.039993727	-103.61591	0.039842069	-103.59671	0.11021789	-51.120992	
7.71	0.056021153	-16.721714	0.039961019	-105.1164	0.039869111	-105.0877	0.10236253	-50.513167	
7.81	0.052955966	-9.7563172	0.039999587	-106.59283	0.039857082	-106.72863	0.096299333	-50.70914	
7.91	0.051002251	-1.8378016	0.039935647	-108.04106	0.039807117	-108.12276	0.093345397	-51.060484	
8.01	0.049326019	6.8530252	0.03994729	-109.63208	0.039809555	-109.74478	0.087292926	-48.085689	
8.11	0.047670428	16.063809	0.039875516	-111.22002	0.039829634	-111.19992	0.077719992	-48.564161	
8.21	0.046853063	25.231397	0.039838167	-112.66569	0.039796909	-112.74659	0.071194796	-50.018532	
8.31	0.047169436	35.014388	0.039847594	-114.08593	0.039769681	-114.17023	0.06648337	-50.813828	
8.41	0.047854514	44.797941	0.039849046	-115.62202	0.039725368	-115.63092	0.058680328	-48.321625	
8.51	0.049401766	54.411709	0.03985792	-117.17112	0.039775407	-117.16282	0.047532537	-52.182491	
8.61	0.051442454	63.216336	0.039891909	-118.85685	0.039736062	-118.82735	0.041040172	-59.475755	
8.71	0.054540561	71.918271	0.039833844	-120.41293	0.039760535	-120.32523	0.035603863	-65.431857	
8.81	0.057749594	80.099211	0.039909534	-121.96396	0.039803994	-121.98796	0.026895767	-71.946447	
8.91	0.061108456	87.735571	0.03985086	-123.59889	0.039759205	-123.50839	0.022128163	-102.14099	
9.01	0.06462134	94.095741	0.039857559	-125.15841	0.039770468	-125.20531	0.025457088	-122.00694	
9.11	0.069944974	99.965908	0.039827173	-126.79034	0.039767609	-126.80164	0.03042454	-137.58328	
9.21	0.074169749	106.44244	0.039782282	-128.42167	0.039773123	-128.42797	0.034385359	-149.58591	
9.31	0.079582442	111.1018	0.03971708	-130.20186	0.039675948	-130.08086	0.04632381	-161.45372	
9.41	0.085426296	116.72861	0.039660686	-131.81334	0.039555804	-131.86904	0.056123233	-159.92684	
9.51	0.090817049	120.98754	0.039327742	-133.36216	0.039287013	-133.35866	0.062063867	-164.24853	
9.61	0.096162131	125.23741	0.039229696	-134.79592	0.039180046	-134.83632	0.072649764	-166.98597	
9.71	0.1006943	129.39049	0.039224763	-136.25219	0.039058029	-136.14229	0.083723072	-167.80406	
9.81	0.1051778	133.12815	0.039056284	-137.74889	0.038966457	-137.74069	0.092718442	-166.74715	
9.91	0.10981102	136.55006	0.038952095	-138.92643	0.038786521	-138.90183	0.099174279	-167.94797	
10.01	0.11416623	139.7942	0.038910477	-140.45068	0.038883607	-140.37968	0.10999407	-168.97486	
10.11	0.11901539	143.09028	0.038799272	-141.96408	0.038732326	-141.98808	0.12091168	-168.75299	
10.21	0.12302655	146.06702	0.038661124	-143.12362	0.038598859	-143.25622	0.12934588	-167.08155	
10.31	0.12722454	149.34868	0.03860844	-144.39832	0.038546261	-144.40202	0.13461431	-167.49125	
10.41	0.13076669	151.6983	0.038546565	-145.604	0.038391554	-145.6653	0.14544082	-167.69826	
10.51	0.13538739	154.40085	0.038676922	-146.88033	0.038477063	-146.86013	0.1556876	-166.69536	
10.61	0.13878837	157.14012	0.03870137	-148.25046	0.038581254	-148.22186	0.16264359	-165.37551	
10.71	0.14198624	159.56005	0.038692089	-149.64437	0.038576443	-149.58917	0.16821581	-165.62786	
10.81	0.14525519	161.8551	0.03868535	-150.93682	0.038654186	-150.98412	0.17849977	-165.35304	
10.91	0.14795274	164.05254	0.038778988	-152.47345	0.03870762	-152.40035	0.1859509	-163.97679	
11.01	0.15113758	166.06086	0.038740302	-153.84716	0.038664554	-153.83466	0.19064093	-163.0248	
11.11	0.1531602	168.27909	0.038703661	-155.09488	0.038570213	-155.13748	0.19469498	-162.9482	
11.21	0.15511713	170.02398	0.038675995	-156.56053	0.038564836	-156.50113	0.20243347	-162.64332	
11.31	0.15709415	171.60866	0.038673911	-157.96441	0.038593849	-157.92811	0.20717552	-161.54687	
11.41	0.15931426	173.15902	0.038688068	-159.13708	0.038643553	-159.27188	0.20988153	-160.68845	
11.51	0.16073257	174.78752	0.038663312	-160.72097	0.038605488	-160.65207	0.21132083	-160.93906	
11.61	0.16224745	175.96536	0.03865351	-162.09865	0.038529107	-162.00605	0.21796449	-161.07384	
11.71	0.16361849	177.29828	0.038630221	-163.44203	0.038532501	-163.47153	0.22059804	-160.24695	
11.81	0.16498939	178.41895	0.03860908	-164.71475	0.038573536	-164.88155	0.2221985	-160.39547	
11.91	0.1663572	179.41917	0.038567076	-166.18383	0.038504964	-166.20843	0.22423429	-160.63053	
12.01	0.16778485	-179.60834	0.038562921	-167.71107	0.038460942	-167.63807	0.22946803	-160.97574	
12.11	0.16927785	-178.77498	0.038506472	-169.15584	0.038435606	-169.05034	0.23128949	-160.37626	
12.21	0.17106842	-178.06708	0.038478553	-170.58821	0.038421006	-170.61951	0.23229566	-161.01692	
12.31	0.1730195	-177.49813	0.038448723	-172.17529	0.038311744	-172.06989	0.23571382	-161.47875	
12.41	0.17515129	-177.28007	0.038207435	-173.88148	0.038115172	-173.92778	0.24123348	-161.97671	
12.51	0.17630022	-177.19399	0.037816473	-175.20806	0.03767307	-175.31336	0.24306795	-161.37845	
12.61	0.17688824	-176.81381	0.037492671	-176.01908	0.037479724	-175.99018	0.24409266	-162.36916	
12.71	0.17865139	-175.69003	0.037610007	-177.02002	0.037527827	-176.95892	0.24948751	-162.82317	
12.81	0.18069774	-175.00489	0.037749498	-178.16748	0.037649671	-178.32128	0.25430587	-163.10097	
12.91	0.18387447	-174.23652	0.037768293	-179.55616	0.037720492	-179.55606	0.25763374	-162.80815	
13.01	0.18668864	-173.70434	0.037841048	179.0221	0.037836691	179.0494	0.25979251	-163.61757	
13.11	0.19094239	-173.16995	0.03789604	177.57928	0.037648167	177.58998	0.26595336	-164.03683	
13.21	0.19462307	-172.50337	0.037775882	176.07326	0.037806338	176.01796	0.27054023	-164.18811	
13.31	0.19823107	-172.06421	0.037725306	174.59845	0.03760389	174.55175	0.27488573	-164.14634	
13.41	0.20257374	-171.54817	0.03761539	173.44746	0.037490011	173.38036	0.27833227	-164.73254	
13.51	0.20725882	-170.80008	0.037519509	172.04942	0.037536792	172.15522	0.28595904	-165.00981	
13.61	0.2123224	-170.24606	0.037585581	170.83474	0.037460302	170.81354	0.29181557	-164.87623	
13.71	0.21852056	-169.48981	0.037558286	169.27979	0.037502115	169.41599	0.29670997	-164.69869	
13.81	0.22416741	-168.50109	0.037550079	168.00747	0.037493921	167.91117	0.30201442	-165.05331	
13.91	0.22997968	-167.77673	0.037476066	166.52741	0.037411403	166.49211	0.31123112	-164.80438	
14.01	0.23692439	-166.94631	0.037419906	165.10822	0.037308062	165.17712	0.3165311	-164.26704	
14.11	0.24336612	-165.78573	0.037353861	163.70252	0.037186517	163.71512	0.3232372	-163.90339	
14.21	0.24933819	-164.80407	0.037252626	162.41078	0.037141282	162.43928	0.32900469	-163.73239	
14.31	0.25684499	-163.76655	0.037168073	161.11659	0.037056982	161.11269	0.33838565	-163.0649	
14.41	0.26382818	-162.57547	0.037071893	159.76941	0.037007928	159.77651	0.3426512	-162.18468	
14.51	0.27122318	-161.32009	0.037013391	158.40414	0.036924011	158.46724	0.34941848	-161.69028	
14.61	0.2785973	-160.02864	0.037001062	157.10482	0.036848023	157.18962	0.35478625	-160.94008	
14.71	0.28554672	-158.62936	0.036805135	155.85865	0.036733171	155.88775	0.36340618	-160.09745	
14.81	0.29275513	-157.44286	0.036704926	154.46535	0.036666913	154.51475	0.36749291	-158.7545	
14.91	0.30015213	-155.86547	0.036626626	153.19056	0.036546594	153.15606	0.372515	-158.1003	
15.01	0.30606282	-154.52494	0.036554387	151.83283	0.036424156	151.89673	0.37777979	-156.99462	
15.11	0.31214096	-153.12649	0.036322615	150.87931	0.036326797	150.80351	0.38408955	-156.02902	
15.21	0.31809996	-151.69498	0.036224712	149.88935	0.036133076	149.80625	0.38770572	-154.40902	
15.31	0.32408915	-150.17949	0.036399151	148.74109	0.036244428	148.75059	0.39104585	-153.64333	
15.41	0.32936399	-148.81369	0.03637671	147.5083	0.036372522	147.4461	0.39601614	-152.24878	
15.51	0.33408058	-147.35277	0.036415024	146.07426	0.036415024	146.12126	0.39936717	-151.00722	
15.61	0.33670562	-145.79564	0.036351386	144.7044	0.036322102	144.6434	0.40103895	-149.35777	
15.71	0.33859977	-144.24636	0.036128288	143.46039	0.036061798	143.38559	0.40169464	-148.4848	
15.81	0.34228223	-142.45071	0.036095135	142.553	0.035983108	142.5158	0.40560927	-147.08045	
15.91	0.34578891	-140.86454	0.036075169	141.43214	0.036104254	141.44594	0.40599351	-145.60164	
16.01	0.34663138	-139.32382	0.036233237	140.01812	0.03612494	140.06112	0.4051274	-144.13381	
16.11	0.34587363	-137.65616	0.036069864	138.70951	0.035871085	138.61181	0.40352622	-143.10289	
16.21	0.34576043	-135.56882	0.035693505	137.80642	0.035533599	137.91852	0.40513273	-141.72111	
16.31	0.34829694	-133.48173	0.035631377	137.35923	0.035545335	137.27243	0.4019619	-140.13609	
16.41	0.34997351	-131.64436	0.035938409	136.62454	0.035835119	136.59134	0.39822672	-138.9425	
16.51	0.35024827	-130.18178	0.036274494	135.76913	0.036166074	135.78143	0.3925302	-137.89106	
16.61	0.34934049	-128.98498	0.036560504	134.66761	0.036535257	134.72661	0.38944946	-136.94226	
16.71	0.34725296	-127.71403	0.036953932	133.56322	0.036911411	133.67542	0.38410472	-135.61015	
16.81	0.34230609	-126.53861	0.037523366	132.34011	0.037415521	132.34221	0.37652236	-134.57946	
16.91	0.33764734	-125.37156	0.03801045	130.60374	0.037896842	130.66704	0.36838685	-133.81546	
17.01	0.32994343	-124.32773	0.038278093	128.87264	0.038194453	128.73524	0.36133069	-133.08464	
17.11	0.32169115	-123.57095	0.038545338	127.38831	0.038536464	127.35151	0.35115424	-132.19547	
17.21	0.31047798	-123.1399	0.038984584	125.72868	0.038859113	125.67048	0.33986595	-131.60963	
17.31	0.29664213	-122.56766	0.039531759	123.89258	0.039427221	124.01647	0.32740743	-131.3721	
17.41	0.27839181	-122.06506	0.03996561	121.88685	0.039859919	122.04055	0.31578339	-131.20474	
17.51	0.25818818	-120.98202	0.040327429	119.8377	0.040216155	119.78651	0.29971882	-131.24388	
17.61	0.23836429	-118.80008	0.040707613	117.49604	0.040576599	117.61904	0.28456378	-131.87176	
17.71	0.22285187	-116.55782	0.041152678	115.30853	0.041105327	115.11593	0.26800441	-132.77678	
17.81	0.20368224	-116.10501	0.041617472	112.06963	0.041493082	112.24003	0.25284842	-133.89292	
17.91	0.18233459	-113.91733	0.040969154	108.60648	0.040856109	108.74788	0.23211832	-135.08439	
18.01	0.16734415	-109.52502	0.039807485	106.64464	0.039775413	106.61553	0.21340572	-138.6073	
18.11	0.15930293	-108.7033	0.039511657	105.68665	0.039375428	105.78814	0.19538463	-141.4987	
18.21	0.14744199	-111.36956	0.03978452	104.5223	0.039706733	104.636	0.17613652	-147.25039	
18.31	0.12919809	-115.72446	0.040144173	102.84902	0.040093365	102.84113	0.15797996	-153.00532	
18.41	0.1060552	-122.5741	0.040551567	100.92228	0.040514235	100.69618	0.14306399	-164.21933	
18.51	0.083716185	-131.12787	0.041322609	99.201537	0.04127031	99.070437	0.1394724	-173.26693	
18.61	0.06722224	-145.9936	0.042268996	96.45655	0.042147511	96.40105	0.13401806	174.9512	
18.71	0.060679555	-167.18084	0.042906642	93.40622	0.042704587	93.43892	0.13613648	163.52927	
18.81	0.064936218	161.24061	0.043129128	89.812173	0.043163895	89.944562	0.14568874	149.59867	
18.91	0.085870179	138.7694	0.043254184	86.428979	0.043224317	86.426176	0.16597746	141.2377	
19.01	0.10964684	124.7926	0.043100861	83.343691	0.042907776	83.512283	0.18310294	133.48799	
19.11	0.13186197	114.7788	0.04276952	80.619131	0.042764587	80.505334	0.20676789	128.05505	
19.21	0.15554894	111.76364	0.042878974	77.661939	0.042834567	77.672639	0.22943925	123.34203	
19.31	0.18099244	111.42709	0.042906663	74.356002	0.042857293	74.464902	0.2576358	119.84296	
19.41	0.21106373	111.06851	0.04262263	71.07845	0.042593197	71.08455	0.28209104	117.20045	
19.51	0.24292473	109.87028	0.042022411	67.659828	0.042109586	67.587528	0.30941875	115.14897	
19.61	0.27473425	108.88368	0.04148945	64.536403	0.041365441	64.476804	0.33453756	113.95467	
19.71	0.30355146	107.84085	0.04048334	61.71486	0.040478671	61.75066	0.35750895	113.24133	
19.81	0.33033017	106.80198	0.039674806	59.693707	0.039501613	59.774709	0.37946437	112.10285	
19.91	0.35043317	106.78112	0.039190039	57.709478	0.038987532	57.809369	0.40448842	111.57612	
20.01	0.36927761	107.57795	0.038668258	55.994783	0.038717259	55.676283	0.42657694	111.52632	
