!
! Hittite Microwave Corporation
! 2 Elizabeth Drive
! Chelmsford, MA 01824
! http://www.hittite.com
! Tel: 978-250-3343
! Fax: 978-250-3373
! 
! Device:      HMC424LP3
! Description: 0.5 dB GaAs MMIC 6-Bit Digital Attenuator
! Frequency:    DC -  13.00 GHz
! Package:     LP3  - 3x3 mm Quad Flatpack No-Lead (QFN) Plastic Package: 16 pin
! Ports:       2 RF, 7 DC
!              Pad  1  = Ground
!              Pad  2  = RF IN   =  Port 1
!              Pad  3  = Ground
!              Pad  4  = V6
!              Pad  5  = V5
!              Pad  6  = V4
!              Pad  7  = V3
!              Pad  8  = V2
!              Pad  9  = V1
!              Pad 10  = Ground
!              Pad 11  = RF OUT  = Port 2
!              Pad 12  = Ground
!              Pad 15  = VEE
!
! Control:     -5 Volt control voltage
! State:        49 
! Attenuation:  24.5 dB
! Voltages:    Vdd = -5.00 Volts  Idd =  -2.391 mA
!              V1  = -5.00 Volts  I1  =  -1.0 uA
!              V2  = 0.00 Volts  I2  =  29.0 uA
!              V3  = 0.00 Volts  I3  =  29.0 uA
!              V4  = 0.00 Volts  I4  =  30.0 uA
!              V5  = -5.00 Volts  I5  =  -1.0 uA
!              V6  = -5.00 Volts  I6  =  -1.0 uA
!
! Data:    The device was measured on evaluation board 105354-1. 
!          Data was collected using a calibrated network analyzer.
!          The evaluation circuit board was modeled and simulated.  This was use
!          to removed the evaluation board circuit from the measured data.
!          The reference plane is the edge of the package pin.
!
! Misc:    Lot xxxx, Unit 1
!          Application 20120001, Data collected in Application 20090083
!
! Date Measured:  2009-09-15
! Date:           2012-05-14  MJV
! Note: 
!   Hittite supplies this data as a sample of measured data at the package pin
!   for this product.  Your particular data for this product may vary.
!   Data was taken at 25 degrees C.
!   Hittite reserves the right to change this data at anytime.
!
# GHz S MA R 50

0.01	0.069252009	2.9276699	0.046516964	-1.2584243	0.046839404	-1.0402243	0.042941605	7.9339133	
0.11	0.064890726	-3.643138	0.045824006	-1.9172493	0.045808181	-2.2549493	0.039532964	0.65911599	
0.21	0.065511012	-6.7497439	0.045772249	-3.42677	0.045666976	-3.57987	0.038726704	-7.5762152	
0.31	0.067232344	-9.2645597	0.045755442	-4.7498904	0.045692272	-4.7872904	0.043954386	-10.247683	
0.41	0.068182915	-12.339395	0.045704172	-6.1836481	0.045735754	-6.2849481	0.044647257	-10.980562	
0.51	0.070075009	-15.074663	0.045677747	-7.7025825	0.04565146	-7.6398825	0.04398563	-13.121674	
0.61	0.071480942	-18.18097	0.045560317	-9.0504817	0.045555072	-9.0548817	0.045295207	-19.613436	
0.71	0.074405609	-20.681568	0.045561974	-10.47519	0.045472888	-10.43929	0.051584159	-21.186801	
0.81	0.076444997	-22.93483	0.045570149	-11.797754	0.045423484	-11.839254	0.051585594	-19.968647	
0.91	0.079522664	-24.920235	0.04546102	-13.251992	0.045419168	-13.275292	0.052968017	-24.810954	
1.01	0.081648424	-26.491579	0.045388031	-14.554168	0.045424624	-14.638868	0.056319842	-28.162381	
1.11	0.084408506	-28.456043	0.045392014	-15.9211	0.045324128	-15.9404	0.062862029	-27.45063	
1.21	0.08646072	-29.817758	0.045237405	-17.373539	0.045211371	-17.473439	0.061618322	-25.95154	
1.31	0.089046448	-31.359258	0.045278098	-18.725466	0.045236415	-18.742566	0.063968863	-30.519046	
1.41	0.091176276	-32.280203	0.045219178	-20.054331	0.045203562	-20.088031	0.068593988	-30.98193	
1.51	0.093129399	-33.653372	0.045238443	-21.386545	0.045129201	-21.447345	0.072670965	-29.666347	
1.61	0.095518685	-34.605079	0.045104248	-22.716087	0.045036792	-22.788787	0.070849167	-28.519259	
1.71	0.096898958	-35.706746	0.045113975	-24.227319	0.045072443	-24.092419	0.07256438	-32.938516	
1.81	0.09869151	-36.694285	0.045049572	-25.54957	0.045018463	-25.42727	0.0769834	-32.504639	
1.91	0.099469388	-37.637217	0.04504962	-26.890483	0.044982246	-26.915583	0.078122021	-31.782256	
2.01	0.10047098	-38.660706	0.044911733	-28.300564	0.044947943	-28.303164	0.075978221	-32.018574	
2.11	0.10095753	-39.876755	0.044922439	-29.525448	0.044839765	-29.592648	0.077934761	-36.474331	
2.21	0.10169565	-41.26758	0.044951912	-30.979229	0.044864019	-30.987329	0.082346769	-35.916828	
2.31	0.10218813	-42.565613	0.044901966	-32.140077	0.044803852	-32.281277	0.081680078	-35.791784	
2.41	0.10242064	-44.175611	0.044817365	-33.5601	0.044714287	-33.6092	0.079840701	-37.590337	
2.51	0.10277719	-45.650851	0.04481843	-34.909778	0.044705055	-34.891778	0.082414183	-41.776146	
2.61	0.10254178	-47.380953	0.044677805	-36.272968	0.044718974	-36.378368	0.086507676	-41.014129	
2.71	0.1030324	-49.125021	0.044680013	-37.645303	0.044628603	-37.737903	0.084203873	-41.656335	
2.81	0.10238546	-51.147484	0.044625807	-38.976839	0.044620669	-39.072739	0.083584509	-44.447999	
2.91	0.10318886	-53.268828	0.044563477	-40.420802	0.044532705	-40.395502	0.08676746	-47.924154	
3.01	0.10306449	-55.353296	0.044535205	-41.671473	0.044504452	-41.727073	0.090202854	-47.110784	
3.11	0.10376384	-57.672932	0.044464963	-42.992744	0.044383131	-43.086344	0.086632785	-48.32586	
3.21	0.10368906	-59.897099	0.044418502	-44.445732	0.044362285	-44.415432	0.087282593	-52.055005	
3.31	0.10427351	-62.466393	0.044439809	-45.778964	0.044301883	-45.602764	0.090465123	-54.52855	
3.41	0.10497004	-64.947057	0.044408087	-47.125408	0.044300851	-47.193908	0.092679174	-54.205552	
3.51	0.10609083	-67.505448	0.044298396	-48.470967	0.044267806	-48.476867	0.089272131	-56.542593	
3.61	0.10715104	-70.222644	0.044292391	-49.837935	0.044215966	-49.933335	0.091763786	-60.976462	
3.71	0.10920572	-72.722773	0.044220992	-51.123045	0.044159941	-51.225645	0.095661137	-62.675269	
3.81	0.11120229	-75.105219	0.044149613	-52.513835	0.044073435	-52.437735	0.096547722	-62.84996	
3.91	0.11330915	-77.48275	0.04402099	-53.876719	0.044092	-53.844619	0.09424192	-66.456219	
4.01	0.12175402	-78.200856	0.044018759	-55.160535	0.043993427	-55.219035	0.10667208	-68.340722	
4.11	0.12401682	-79.812292	0.043959549	-56.497438	0.043969672	-56.489738	0.1108541	-68.573803	
4.21	0.12679671	-81.442245	0.043912062	-57.841578	0.043901952	-57.773978	0.11178853	-68.940018	
4.31	0.13014151	-82.676014	0.04383099	-59.222048	0.043805766	-59.264148	0.11178444	-71.696087	
4.41	0.13257813	-83.710994	0.043842774	-60.593071	0.043746975	-60.590471	0.11893645	-73.430157	
4.51	0.13523869	-84.687871	0.043703334	-61.876853	0.0436631	-62.023953	0.12191339	-72.483111	
4.61	0.13800686	-85.64642	0.043628375	-63.293213	0.043598248	-63.285913	0.12251119	-72.683532	
4.71	0.14095677	-86.27129	0.04356503	-64.592684	0.043580079	-64.605184	0.12305885	-74.413494	
4.81	0.14317413	-86.872658	0.043588499	-65.779698	0.043493256	-65.965498	0.13007177	-75.226203	
4.91	0.14582926	-87.301575	0.04347837	-67.309791	0.04340335	-67.227191	0.13162873	-73.498974	
5.01	0.14786086	-87.636274	0.043368164	-68.492394	0.043368164	-68.549394	0.1308624	-73.951594	
5.11	0.15033809	-87.698613	0.043372289	-69.867012	0.043287484	-69.852112	0.13187701	-75.064723	
5.21	0.15197948	-87.81425	0.0432554	-71.213101	0.043190709	-71.187301	0.13774457	-75.506248	
5.31	0.15384962	-87.752861	0.043189347	-72.512301	0.043114826	-72.568901	0.13859423	-73.348124	
5.41	0.15513452	-87.489574	0.043158844	-73.845618	0.043129041	-73.903018	0.13707152	-74.147455	
5.51	0.15650643	-87.248137	0.043123663	-75.193548	0.043049255	-75.220348	0.1395849	-74.733851	
5.61	0.15732835	-86.685034	0.04303871	-76.503943	0.042999088	-76.481943	0.14425651	-74.56706	
5.71	0.15743006	-86.332578	0.042888888	-77.725994	0.042839539	-77.813094	0.14438384	-72.264813	
5.81	0.15760989	-85.559084	0.042858137	-79.009364	0.042833473	-79.155564	0.14192573	-72.852726	
5.91	0.15699379	-85.048498	0.042897708	-80.390264	0.042794119	-80.434264	0.1458208	-72.960093	
6.01	0.15656626	-84.210943	0.042777767	-81.695848	0.042767918	-81.679348	0.14930095	-71.680749	
6.11	0.15555672	-83.445433	0.04275383	-83.006069	0.04266041	-83.000069	0.14805522	-69.208998	
6.21	0.15392798	-82.190926	0.042650539	-84.281776	0.042601464	-84.315676	0.14462343	-69.462766	
6.31	0.15203371	-81.48341	0.042702174	-85.643304	0.04265795	-85.639804	0.1479734	-68.915046	
6.41	0.1496487	-80.037963	0.042623727	-86.818069	0.042481654	-86.854669	0.14876253	-66.908339	
6.51	0.14635414	-78.838339	0.042614162	-88.246732	0.042516152	-88.223932	0.14644005	-64.330314	
6.61	0.14246526	-77.549184	0.042643992	-89.573514	0.042575314	-89.567814	0.14139047	-64.034586	
6.71	0.13848097	-76.415145	0.042579886	-90.924365	0.0425211	-90.942065	0.14311398	-63.381961	
6.81	0.13438248	-75.040264	0.042574073	-92.262027	0.042510401	-92.356027	0.14108907	-60.943027	
6.91	0.12938195	-73.609359	0.042517614	-93.703145	0.042517614	-93.586245	0.1371271	-58.915327	
7.01	0.12415163	-72.362158	0.042560057	-95.021037	0.042486622	-95.045737	0.13078682	-58.325539	
7.11	0.11861609	-70.977947	0.04256519	-96.53973	0.042506424	-96.44493	0.13141594	-58.20646	
7.21	0.11233385	-69.565774	0.042488792	-97.794632	0.042430132	-97.882332	0.12766739	-55.141606	
7.31	0.10558314	-68.042548	0.042555385	-99.185865	0.042418424	-99.289465	0.12119764	-54.166378	
7.41	0.098752645	-66.779045	0.042574507	-100.61919	0.042554905	-100.63109	0.11550461	-54.124737	
7.51	0.091320485	-65.110107	0.042659329	-102.0816	0.042536722	-102.078	0.11448908	-54.188029	
7.61	0.083867117	-64.088921	0.042639819	-103.5767	0.042541751	-103.5808	0.11026183	-51.174783	
7.71	0.076006415	-62.628728	0.042696105	-105.15877	0.042602811	-104.99347	0.10231942	-50.525741	
7.81	0.067795136	-61.747868	0.042686434	-106.5854	0.042544152	-106.6405	0.09630925	-50.783612	
7.91	0.059572405	-60.444706	0.042743992	-108.14258	0.042542703	-108.12818	0.093294993	-51.067828	
8.01	0.050817108	-59.243632	0.042641329	-109.68058	0.042582459	-109.68188	0.087341577	-48.15631	
8.11	0.041780871	-59.209786	0.042665441	-111.20155	0.042562413	-111.25345	0.077737848	-48.613516	
8.21	0.03284939	-59.704262	0.042656026	-112.74767	0.042553021	-112.84997	0.071149707	-50.028218	
8.31	0.023590225	-60.999224	0.042603084	-114.24388	0.042534471	-114.24958	0.066513837	-50.827503	
8.41	0.014254389	-67.539723	0.042574701	-115.79812	0.042506134	-115.85842	0.058594722	-48.380486	
8.51	0.0060082931	-101.67063	0.042681244	-117.43438	0.042622319	-117.38608	0.047450037	-52.310333	
8.61	0.0078710983	174.88435	0.042639469	-118.99659	0.042600214	-119.00049	0.041056444	-59.723657	
8.71	0.017379135	153.97754	0.042680643	-120.55452	0.042518796	-120.59342	0.035616433	-65.553367	
8.81	0.027336693	150.18877	0.042587287	-122.2145	0.042577482	-122.2305	0.026957123	-72.163271	
8.91	0.037648492	149.98983	0.042574694	-123.83113	0.042589401	-123.88363	0.022188951	-102.16831	
9.01	0.046857438	150.33097	0.042581035	-125.48351	0.042507564	-125.46781	0.025548529	-122.19228	
9.11	0.05734227	149.86333	0.042604838	-127.0731	0.042531325	-127.0923	0.030481108	-137.42056	
9.21	0.06770621	151.6321	0.042540893	-128.74598	0.042443051	-128.76628	0.034399406	-149.7554	
9.31	0.077243933	151.88943	0.042484029	-130.46849	0.042435146	-130.49479	0.04654978	-161.47474	
9.41	0.088221427	153.38137	0.042354904	-132.26766	0.042315911	-132.28696	0.056206193	-159.8842	
9.51	0.0976688	154.47883	0.042158049	-133.79621	0.042061088	-133.71961	0.06205319	-164.10683	
9.61	0.10733976	155.77017	0.041984919	-135.17482	0.041873891	-135.17932	0.072592287	-166.98732	
9.71	0.11627659	157.50692	0.041884322	-136.75266	0.041826496	-136.62726	0.083871856	-167.80388	
9.81	0.12453742	158.99563	0.041762667	-138.13748	0.041652227	-138.27898	0.092743204	-166.76724	
9.91	0.1327818	160.37172	0.041594682	-139.43875	0.041537257	-139.45885	0.099330647	-167.98395	
10.01	0.14026782	161.64788	0.041607634	-140.9573	0.041511939	-141.004	0.10994996	-169.0012	
10.11	0.14823698	163.12894	0.041468283	-142.42871	0.041325303	-142.42791	0.12099912	-168.70735	
10.21	0.15526021	164.45119	0.041304379	-143.81261	0.041228364	-143.73111	0.12943237	-167.06511	
10.31	0.16242766	166.03805	0.041087503	-145.04845	0.041054404	-144.97385	0.13468914	-167.52099	
10.41	0.16822107	167.10899	0.041094997	-146.18211	0.04095802	-146.16811	0.14557918	-167.66803	
10.51	0.17501053	168.35032	0.04114074	-147.38422	0.041046119	-147.48652	0.15572729	-166.75096	
10.61	0.18072062	169.79072	0.041222511	-148.82731	0.041066193	-148.75011	0.1627836	-165.41728	
10.71	0.18588359	170.98518	0.041094006	-150.13596	0.041103469	-150.12696	0.16819814	-165.67592	
10.81	0.19087518	172.15275	0.041207556	-151.61392	0.041150665	-151.51922	0.17866405	-165.34381	
10.91	0.194986	173.30896	0.041196438	-152.97287	0.041096957	-152.96247	0.18605533	-164.02209	
11.01	0.1993341	174.29421	0.041168404	-154.33831	0.041068991	-154.28861	0.19072628	-163.04228	
11.11	0.20278931	175.50663	0.041103196	-155.71907	0.041003941	-155.62487	0.19468129	-162.96228	
11.21	0.2055875	176.35839	0.041059724	-156.99098	0.040908733	-157.01078	0.20239435	-162.70232	
11.31	0.20834996	177.15528	0.04098089	-158.42315	0.04098089	-158.39515	0.20735267	-161.56916	
11.41	0.21137699	177.86468	0.040967583	-159.65354	0.040948721	-159.78694	0.20977829	-160.68767	
11.51	0.21335439	178.74189	0.041010736	-161.02093	0.040906993	-161.13303	0.21138054	-160.90176	
11.61	0.21522833	179.27582	0.040928762	-162.51469	0.040886375	-162.39259	0.21820854	-161.13982	
11.71	0.21706677	179.87103	0.040896735	-163.88157	0.040877906	-163.97747	0.22062952	-160.22056	
11.81	0.21861061	-179.63438	0.04089831	-165.22342	0.040884187	-165.12612	0.22223792	-160.4188	
11.91	0.22022793	-179.25327	0.040802913	-166.69072	0.040723132	-166.55862	0.22429138	-160.66011	
12.01	0.22168478	-178.85891	0.040843786	-168.09485	0.040773312	-168.06555	0.22942184	-160.98477	
12.11	0.22320559	-178.58818	0.040724711	-169.47141	0.0407294	-169.52891	0.23128936	-160.40062	
12.21	0.22485594	-178.3887	0.040694587	-170.82006	0.040610342	-170.90186	0.23224131	-161.02322	
12.31	0.22662807	-178.26315	0.040644289	-172.36532	0.040625575	-172.47012	0.23565988	-161.49738	
12.41	0.22842971	-178.39135	0.040336777	-174.03401	0.040355357	-174.15771	0.24115184	-161.94055	
12.51	0.22963518	-178.6004	0.040044188	-175.32933	0.039970492	-175.41153	0.24297221	-161.39412	
12.61	0.23033579	-178.60864	0.039804014	-176.20744	0.039744485	-176.19114	0.24416475	-162.39164	
12.71	0.23189747	-178.11671	0.039862966	-177.123	0.039794185	-177.1304	0.24950226	-162.82894	
12.81	0.23368687	-177.87822	0.039974422	-178.37974	0.039832007	-178.43664	0.25425871	-163.1456	
12.91	0.23648259	-177.61106	0.040052697	-179.84592	0.039983588	-179.80742	0.25762578	-162.80758	
13.01	0.23877628	-177.48308	0.0401061	178.80221	0.039967817	178.79531	0.25987663	-163.65293	
13.11	0.24244022	-177.33906	0.040052265	177.36221	0.039955547	177.34091	0.26591086	-164.05125	
13.21	0.24565102	-177.04923	0.040114122	175.93115	0.039962007	175.85075	0.27047178	-164.19344	
13.31	0.24857403	-176.93996	0.039878734	174.40324	0.039846608	174.31834	0.27484473	-164.16721	
13.41	0.25226935	-176.69384	0.039777896	173.30009	0.039750428	173.23899	0.27833701	-164.71887	
13.51	0.25610717	-176.30617	0.039761737	171.93706	0.039720559	171.95246	0.28594856	-165.02377	
13.61	0.260364	-176.00035	0.039710271	170.59164	0.0397057	170.62644	0.29180502	-164.87187	
13.71	0.26552425	-175.53935	0.039718111	169.26925	0.03964958	169.26665	0.29671807	-164.70215	
13.81	0.27004122	-174.85813	0.039635285	167.83085	0.039607916	167.89445	0.30196132	-165.05511	
13.91	0.27479273	-174.3401	0.039525948	166.50384	0.03953505	166.47574	0.3112964	-164.82007	
14.01	0.28053965	-173.70116	0.039513232	164.93672	0.039481401	165.01372	0.31646408	-164.26931	
14.11	0.28553262	-172.78773	0.039424319	163.75099	0.039378956	163.72449	0.32309956	-163.91233	
14.21	0.29012908	-172.01343	0.039318314	162.4151	0.039282118	162.5257	0.32895372	-163.72551	
14.31	0.29600952	-171.11457	0.039256541	161.16691	0.039170763	161.19911	0.33835843	-163.06989	
14.41	0.30124354	-170.08967	0.039238763	159.91988	0.039085467	159.94398	0.3427032	-162.19346	
14.51	0.30691599	-168.97153	0.039092017	158.54269	0.039056029	158.60359	0.34939642	-161.68623	
14.61	0.31240665	-167.75731	0.039076835	157.43565	0.038942101	157.37005	0.35484479	-160.94499	
14.71	0.31732957	-166.51898	0.038956186	156.09639	0.038857641	156.10439	0.3634737	-160.08076	
14.81	0.32244801	-165.37907	0.038863975	154.78595	0.038805851	154.66175	0.36735735	-158.73666	
14.91	0.32772111	-163.88986	0.038744017	153.44328	0.038708349	153.50868	0.37248602	-158.07854	
15.01	0.331617	-162.57468	0.038618881	152.29979	0.038592214	152.23559	0.37779591	-157.00414	
15.11	0.33540178	-161.2445	0.038448012	151.0833	0.038377254	151.1537	0.38409035	-156.0225	
15.21	0.33925228	-159.8557	0.03837365	150.20076	0.038400167	150.16846	0.38775698	-154.41874	
15.31	0.34282939	-158.37418	0.038572176	149.06373	0.038470173	149.07083	0.39091445	-153.63142	
15.41	0.34599579	-156.97627	0.038647014	147.78391	0.038540376	147.90431	0.39599958	-152.23003	
15.51	0.34857444	-155.54242	0.038624576	146.51138	0.038571251	146.57868	0.3993602	-151.00712	
15.61	0.34898973	-154.05304	0.03853758	145.09991	0.038466657	145.19441	0.40102539	-149.36003	
15.71	0.34860045	-152.54087	0.038355507	144.064	0.038333435	144.0187	0.40151873	-148.48011	
15.81	0.34969364	-150.78885	0.038339823	143.09913	0.038330996	143.12803	0.40569656	-147.08812	
15.91	0.35070726	-149.19287	0.03848832	141.95846	0.038444034	142.06436	0.40579465	-145.60997	
16.01	0.34923717	-147.70331	0.038574077	140.62452	0.03846764	140.54192	0.40506066	-144.12898	
16.11	0.34625313	-146.10288	0.038426233	139.39355	0.038329029	139.35905	0.40353527	-143.10088	
16.21	0.34330434	-144.1043	0.038095996	138.42004	0.03809161	138.43994	0.40521683	-141.71273	
16.31	0.34294371	-142.0053	0.038169657	137.95578	0.038112572	137.82208	0.40192814	-140.1329	
16.41	0.34161083	-140.13051	0.038482365	137.12557	0.038495659	137.14787	0.39811782	-138.95515	
16.51	0.33906242	-138.64114	0.03884262	136.18407	0.038766672	136.04477	0.39276717	-137.90774	
16.61	0.33557158	-137.44149	0.039281631	134.99391	0.039222883	135.08431	0.3894811	-136.94643	
16.71	0.3312064	-136.1451	0.039667626	133.75848	0.039530855	133.85748	0.38402206	-135.61333	
16.81	0.32374683	-135.00931	0.040164166	132.45595	0.040067178	132.46275	0.37647571	-134.58583	
16.91	0.31673213	-133.87867	0.040686955	130.78425	0.040616752	130.82435	0.36831424	-133.81363	
17.01	0.30702794	-132.96821	0.040985952	129.01121	0.040938793	128.89641	0.36119037	-133.08156	
17.11	0.29659498	-132.30174	0.041254339	127.51113	0.041178416	127.50683	0.35132206	-132.22179	
17.21	0.28349778	-132.02683	0.041685542	125.7445	0.041642371	125.82479	0.33994336	-131.61295	
17.31	0.2683816	-131.77605	0.042143383	123.91416	0.042133676	123.91976	0.32748301	-131.40411	
17.41	0.24845419	-131.72392	0.042618202	121.88291	0.042525077	121.9331	0.31563502	-131.22276	
17.51	0.22633495	-131.27925	0.042908671	119.73612	0.042893849	119.86291	0.29948464	-131.22966	
17.61	0.2039731	-129.71346	0.043199107	117.64555	0.043189161	117.69785	0.28446305	-131.93063	
17.71	0.18500132	-127.83352	0.04379521	115.43091	0.043744818	115.41701	0.2679809	-132.7799	
17.81	0.16395584	-128.29485	0.044166471	112.44629	0.044080113	112.38789	0.25302785	-133.90281	
17.91	0.14019323	-126.89866	0.043480293	108.99174	0.04350533	109.16074	0.23192083	-135.1111	
18.01	0.12062432	-122.41989	0.042545035	107.18324	0.042530345	107.22323	0.21354467	-138.65626	
18.11	0.10954706	-121.83065	0.042401807	106.13871	0.0423189	106.2393	0.19557085	-141.59422	
18.21	0.097007246	-126.41692	0.04275	104.74859	0.042710639	104.67989	0.17625385	-147.31779	
18.31	0.080005333	-134.80544	0.043216387	102.7479	0.043171629	102.6833	0.15787907	-153.08026	
18.41	0.061540244	-151.38589	0.043595805	100.55872	0.0435657	100.60522	0.14314011	-164.29269	
18.51	0.048767823	-176.32616	0.044270168	98.735666	0.044148014	98.816066	0.13953618	-173.41378	
18.61	0.051193706	154.36962	0.045023883	96.029956	0.044997973	95.958556	0.13387283	174.84097	
18.71	0.065250397	134.93772	0.045619076	92.911374	0.045508916	92.937674	0.13613663	163.49376	
18.81	0.090837446	119.31599	0.04585424	89.350661	0.045743508	89.293966	0.14576966	149.49276	
18.91	0.12160088	111.3203	0.045871838	86.069394	0.045724209	86.064794	0.16602491	141.24684	
19.01	0.14946637	105.15149	0.04536515	83.030567	0.045391268	83.063665	0.18319332	133.43633	
19.11	0.17481044	99.813447	0.045099097	80.418273	0.045067954	80.379078	0.20696595	127.97243	
19.21	0.19803067	98.734503	0.04511131	77.596749	0.045100924	77.592949	0.22957645	123.29419	
19.31	0.22131258	99.266959	0.045154497	74.280613	0.045102541	74.223913	0.25808715	119.78666	
19.41	0.24894475	99.826645	0.044913975	71.123099	0.044826155	71.110499	0.28230507	117.22989	
19.51	0.27763611	99.700994	0.044262893	67.814976	0.044201784	67.836376	0.30934642	115.10686	
19.61	0.30626398	99.622277	0.043560736	64.740194	0.043475566	64.815094	0.33463648	113.97008	
19.71	0.33257231	99.377978	0.042571376	62.125109	0.042463686	62.113107	0.35742598	113.24355	
19.81	0.3568136	99.030353	0.041609777	60.085254	0.041485411	60.142555	0.37966355	112.08306	
19.91	0.37507059	99.385243	0.041017606	58.178905	0.040993998	58.297998	0.4043483	111.56216	
20.01	0.39094548	100.41576	0.040724855	56.483401	0.040724855	56.140101	0.42671391	111.47595	
