!
! Hittite Microwave Corporation
! 2 Elizabeth Drive
! Chelmsford, MA 01824
! http://www.hittite.com
! Tel: 978-250-3343
! Fax: 978-250-3373
! 
! Device:      HMC424LP3
! Description: 0.5 dB GaAs MMIC 6-Bit Digital Attenuator
! Frequency:    DC -  13.00 GHz
! Package:     LP3  - 3x3 mm Quad Flatpack No-Lead (QFN) Plastic Package: 16 pin
! Ports:       2 RF, 7 DC
!              Pad  1  = Ground
!              Pad  2  = RF IN   =  Port 1
!              Pad  3  = Ground
!              Pad  4  = V6
!              Pad  5  = V5
!              Pad  6  = V4
!              Pad  7  = V3
!              Pad  8  = V2
!              Pad  9  = V1
!              Pad 10  = Ground
!              Pad 11  = RF OUT  = Port 2
!              Pad 12  = Ground
!              Pad 15  = VEE
!
! Control:     -5 Volt control voltage
! State:        57 
! Attenuation:  28.5 dB
! Voltages:    Vdd = -5.00 Volts  Idd =  -2.513 mA
!              V1  = -5.00 Volts  I1  =  -1.0 uA
!              V2  = 0.00 Volts  I2  =  29.0 uA
!              V3  = 0.00 Volts  I3  =  29.0 uA
!              V4  = -5.00 Volts  I4  =  -1.0 uA
!              V5  = -5.00 Volts  I5  =  -1.0 uA
!              V6  = -5.00 Volts  I6  =  -1.0 uA
!
! Data:    The device was measured on evaluation board 105354-1. 
!          Data was collected using a calibrated network analyzer.
!          The evaluation circuit board was modeled and simulated.  This was use
!          to removed the evaluation board circuit from the measured data.
!          The reference plane is the edge of the package pin.
!
! Misc:    Lot xxxx, Unit 1
!          Application 20120001, Data collected in Application 20090083
!
! Date Measured:  2009-09-15
! Date:           2012-05-14  MJV
! Note: 
!   Hittite supplies this data as a sample of measured data at the package pin
!   for this product.  Your particular data for this product may vary.
!   Data was taken at 25 degrees C.
!   Hittite reserves the right to change this data at anytime.
!
# GHz S MA R 50

0.01	0.045804613	8.6011915	0.029387473	0.52724453	0.030009741	0.16724453	0.042995945	6.9433206	
0.11	0.041981182	-3.7015305	0.028787433	-1.668383	0.028960292	-2.245883	0.039392724	0.78809606	
0.21	0.042591302	-6.9869647	0.028775031	-3.1574909	0.02875185	-3.2840909	0.038611398	-7.8727495	
0.31	0.044304031	-9.6759618	0.028774706	-4.586867	0.028688701	-4.473367	0.043852352	-10.310068	
0.41	0.045209033	-12.509319	0.028779311	-5.942207	0.028723039	-5.919207	0.044481691	-10.911247	
0.51	0.047203274	-15.554954	0.028670528	-7.2622605	0.028657328	-7.5002605	0.043724168	-13.193769	
0.61	0.048602321	-18.630092	0.028646768	-8.66533	0.028656664	-8.62723	0.045130492	-19.779735	
0.71	0.051468877	-21.051854	0.02866817	-9.8060854	0.028638481	-10.020385	0.051494461	-21.1491	
0.81	0.053588964	-23.069454	0.028568462	-11.323641	0.028512603	-11.147441	0.051372579	-19.976919	
0.91	0.056644188	-24.848343	0.028589379	-12.73313	0.028566348	-12.55953	0.052700065	-24.839425	
1.01	0.058766342	-26.016226	0.028504654	-13.837304	0.028517784	-13.849904	0.056114772	-28.171164	
1.11	0.061492908	-27.709984	0.028550422	-15.169104	0.028491318	-15.089904	0.062711245	-27.505359	
1.21	0.063655658	-28.492815	0.028479955	-16.401767	0.028457012	-16.541267	0.061433883	-25.870089	
1.31	0.066161094	-29.731709	0.028473275	-17.799666	0.028384904	-17.755366	0.063863249	-30.531212	
1.41	0.06844453	-30.185942	0.028459562	-18.994474	0.028453009	-19.057274	0.068474818	-30.998144	
1.51	0.070328976	-31.244617	0.028383752	-20.360264	0.028416448	-20.276664	0.072459339	-29.631617	
1.61	0.072795552	-31.706371	0.028446844	-21.592258	0.028322663	-21.679058	0.070647902	-28.570708	
1.71	0.074302182	-32.430789	0.028381185	-22.8174	0.028309391	-22.9152	0.072424781	-32.89755	
1.81	0.076320994	-32.992547	0.028317949	-24.232	0.028288623	-24.191	0.076778007	-32.510903	
1.91	0.077161064	-33.478916	0.028360428	-25.556017	0.028327796	-25.606817	0.078085943	-31.812081	
2.01	0.078282875	-34.093728	0.028192372	-26.862998	0.028257362	-26.795698	0.075901994	-31.96428	
2.11	0.079005764	-34.984051	0.028296537	-27.834005	0.028160042	-28.145605	0.07784316	-36.414695	
2.21	0.079864552	-36.070842	0.028207561	-29.447191	0.028201067	-29.180991	0.082324824	-35.952811	
2.31	0.080556676	-37.042104	0.028189054	-30.638968	0.02817932	-30.613968	0.08142739	-35.750389	
2.41	0.08081043	-38.332986	0.028220011	-31.853262	0.028064491	-31.971062	0.07972713	-37.559523	
2.51	0.081266135	-39.657199	0.028142525	-33.220156	0.028161972	-33.097756	0.082384461	-41.705397	
2.61	0.081175615	-41.068914	0.028092747	-34.480602	0.028138063	-34.709102	0.086333404	-40.915829	
2.71	0.081720949	-42.698651	0.028126242	-35.804843	0.028093879	-35.796643	0.084083813	-41.657985	
2.81	0.081219202	-44.327822	0.028004582	-37.009586	0.028082069	-36.980486	0.08345827	-44.446074	
2.91	0.081948247	-46.362227	0.028065198	-38.4019	0.028029678	-38.351	0.08664138	-47.789202	
3.01	0.081916801	-48.453147	0.028027888	-39.58039	0.027963426	-39.60989	0.089979488	-47.056577	
3.11	0.082432463	-50.622949	0.028025403	-40.901861	0.027877374	-40.964661	0.086591794	-48.340003	
3.21	0.082389825	-52.816476	0.02792843	-42.119502	0.027864197	-41.983202	0.087146217	-52.004694	
3.31	0.083042676	-55.287019	0.027899895	-43.48859	0.027819708	-43.35439	0.090349128	-54.481619	
3.41	0.083549049	-57.85092	0.027841574	-44.725236	0.027867229	-44.853036	0.092576323	-54.181544	
3.51	0.084554681	-60.60047	0.027776147	-46.050883	0.027750576	-46.204583	0.089102918	-56.501694	
3.61	0.085583436	-63.365006	0.027833269	-47.285403	0.02772134	-47.437203	0.091536916	-60.881015	
3.71	0.087450622	-65.976494	0.027737481	-48.725027	0.027766236	-48.513427	0.09548307	-62.690795	
3.81	0.08933629	-68.458515	0.0276993	-50.012784	0.027696111	-50.077084	0.096371778	-62.859625	
3.91	0.091500915	-70.884786	0.027609182	-51.096353	0.027631441	-51.215753	0.094054017	-66.430996	
4.01	0.10004014	-71.74764	0.027713106	-52.483405	0.027713106	-52.383305	0.10654009	-68.27301	
4.11	0.10244879	-73.342821	0.027609266	-53.796024	0.027669727	-53.936424	0.11057244	-68.524217	
4.21	0.1054167	-74.962744	0.027525513	-55.080733	0.027611209	-55.109233	0.11169244	-68.949827	
4.31	0.10889828	-76.177235	0.027566545	-56.35173	0.027557025	-56.58663	0.1118133	-71.662124	
4.41	0.11163359	-77.038808	0.027539019	-57.603017	0.027488336	-57.788217	0.11874575	-73.379617	
4.51	0.11457454	-77.864806	0.027428982	-58.841421	0.027476391	-59.091321	0.12177094	-72.419314	
4.61	0.1175057	-78.693737	0.027391014	-60.212236	0.02733431	-60.200436	0.12236232	-72.625938	
4.71	0.12099315	-79.201201	0.027426295	-61.528931	0.027363217	-61.647431	0.12281324	-74.395452	
4.81	0.12362057	-79.623371	0.027386378	-62.747058	0.027335977	-62.868858	0.12994616	-75.19149	
4.91	0.12679298	-79.887782	0.027300268	-64.163302	0.027284557	-64.181202	0.13143457	-73.449324	
5.01	0.12951516	-80.087781	0.027238937	-65.398556	0.027191937	-65.386456	0.13072739	-73.95566	
5.11	0.13274424	-79.889283	0.027255028	-66.598941	0.027208001	-66.590341	0.13177706	-75.033476	
5.21	0.13484543	-79.81925	0.027145249	-68.006696	0.027198429	-68.054296	0.13761641	-75.490471	
5.31	0.13770442	-79.583235	0.027104072	-69.256577	0.027166554	-69.291077	0.13853992	-73.336562	
5.41	0.13996603	-79.101879	0.027081844	-70.559924	0.027022668	-70.574724	0.13699203	-74.101958	
5.51	0.14219116	-78.643854	0.0270315	-71.863493	0.026987965	-71.779093	0.13955828	-74.71227	
5.61	0.14409697	-77.885541	0.026990109	-73.092629	0.026977683	-73.037929	0.14425097	-74.536607	
5.71	0.14524701	-77.264363	0.026935475	-74.289328	0.026873525	-74.469128	0.14424824	-72.223917	
5.81	0.1468846	-76.281499	0.026871279	-75.727374	0.026815651	-75.502874	0.14185021	-72.832126	
5.91	0.14741249	-75.506626	0.026829526	-76.966755	0.026810999	-76.841755	0.14568941	-72.943834	
6.01	0.14832436	-74.456243	0.026767985	-78.158812	0.0267495	-78.043012	0.14913364	-71.643067	
6.11	0.14875394	-73.434435	0.026734988	-79.449263	0.026596837	-79.498263	0.14801667	-69.167473	
6.21	0.14870121	-71.9672	0.026714366	-80.643672	0.026594686	-80.694072	0.14457971	-69.426209	
6.31	0.14831316	-70.988995	0.026639397	-81.76703	0.026605681	-81.93993	0.14787001	-68.879079	
6.41	0.14774782	-69.368086	0.026609543	-83.032628	0.026640196	-83.018528	0.14870938	-66.893895	
6.51	0.14619664	-67.886838	0.026573332	-84.323193	0.026603944	-84.383493	0.14638887	-64.336357	
6.61	0.14419566	-66.297585	0.026619632	-85.646574	0.026524796	-85.633074	0.14129777	-64.025639	
6.71	0.14199047	-64.926948	0.026623138	-86.985142	0.02654662	-86.985242	0.14291328	-63.354839	
6.81	0.1397496	-63.346594	0.026617135	-88.263463	0.026467401	-88.342363	0.14095504	-60.914699	
6.91	0.1366414	-61.621472	0.026570556	-89.527183	0.026506393	-89.554683	0.13699202	-58.918166	
7.01	0.13311707	-60.164532	0.026513084	-90.999062	0.026452106	-90.971262	0.13076443	-58.331142	
7.11	0.1294548	-58.527984	0.026499768	-92.237091	0.02647842	-92.292691	0.13121759	-58.183539	
7.21	0.12507637	-56.887462	0.026482077	-93.612226	0.026418128	-93.545426	0.12754696	-55.132165	
7.31	0.12029328	-55.090148	0.026440729	-94.857198	0.026437685	-94.813298	0.12110237	-54.127899	
7.41	0.11526893	-53.487218	0.026482749	-96.089716	0.026397516	-96.137516	0.11546036	-54.033076	
7.51	0.1096963	-51.621969	0.026469799	-97.431113	0.026472847	-97.542913	0.11440763	-54.058092	
7.61	0.10382028	-50.244992	0.026524031	-98.946358	0.026517924	-98.888258	0.11010916	-51.057252	
7.71	0.097644922	-48.45185	0.026571099	-100.4589	0.026528306	-100.5252	0.10227278	-50.461312	
7.81	0.090752729	-47.156778	0.026609046	-101.81914	0.026547847	-101.89464	0.096309082	-50.677025	
7.91	0.084194812	-45.518518	0.026554781	-103.31244	0.026567013	-103.15904	0.093222586	-50.947901	
8.01	0.076798792	-43.876857	0.026555165	-104.68212	0.026555165	-104.72902	0.087218711	-47.992076	
8.11	0.068679255	-42.737679	0.026552593	-106.32759	0.026537313	-106.19599	0.077722836	-48.411883	
8.21	0.060824416	-41.699621	0.026527385	-107.67834	0.026466374	-107.77624	0.071134467	-49.865933	
8.31	0.052423997	-40.431588	0.02651599	-109.10612	0.02650073	-109.04212	0.066460284	-50.696273	
8.41	0.043573933	-39.778865	0.02649598	-110.55514	0.026532611	-110.62144	0.058590133	-48.172165	
8.51	0.034253166	-39.69663	0.026557336	-112.13471	0.026532887	-112.13061	0.047525293	-51.895587	
8.61	0.0251618	-40.984585	0.026589265	-113.84412	0.026567845	-113.74762	0.041063329	-59.098372	
8.71	0.015282844	-45.455886	0.026610192	-115.19718	0.026545934	-115.14018	0.035569878	-65.255823	
8.81	0.0064507855	-73.918047	0.026608175	-116.99245	0.026516432	-116.71065	0.026863776	-71.371399	
8.91	0.0079876735	-164.18813	0.026654536	-118.38285	0.026623866	-118.29365	0.022078551	-101.51902	
9.01	0.016665386	176.62269	0.026661298	-119.89345	0.026664367	-120.03665	0.025356362	-121.67098	
9.11	0.02683952	168.43383	0.026607925	-121.45439	0.026604862	-121.63009	0.030088395	-137.45076	
9.21	0.037976386	168.18533	0.026642501	-123.1542	0.02653536	-123.2376	0.034213748	-149.56339	
9.31	0.048124533	166.89188	0.026536641	-124.85842	0.026506107	-124.91502	0.046076017	-161.35789	
9.41	0.059961232	167.35501	0.026456406	-126.74974	0.026441181	-126.72514	0.05590497	-159.84385	
9.51	0.070398181	167.88078	0.02625766	-128.17336	0.026176165	-128.24896	0.061710066	-164.18074	
9.61	0.08107238	168.76132	0.026123492	-129.45821	0.025982518	-129.35491	0.072306752	-166.95912	
9.71	0.091449946	170.33995	0.026157172	-130.90731	0.026127074	-130.94031	0.083469294	-167.72633	
9.81	0.10147593	171.68713	0.025947821	-132.24232	0.025900068	-132.38342	0.092485563	-166.65325	
9.91	0.11104504	172.84097	0.025934716	-133.43103	0.025839344	-133.35063	0.099025273	-167.89842	
10.01	0.12009394	173.89382	0.025875899	-134.93348	0.025905707	-135.04098	0.10977664	-168.96008	
10.11	0.12988094	175.16693	0.02580584	-136.27943	0.025716863	-136.36483	0.12068332	-168.58703	
10.21	0.13881237	176.31713	0.02565987	-137.56461	0.025577285	-137.61321	0.12919935	-167.04466	
10.31	0.14787173	177.75378	0.025599497	-138.50621	0.025511232	-138.63881	0.13448047	-167.45648	
10.41	0.15536419	178.5785	0.025552903	-139.66301	0.025485329	-139.58261	0.14546119	-167.5559	
10.51	0.16409725	179.64587	0.025583486	-140.62481	0.025624755	-140.69791	0.15552242	-166.63024	
10.61	0.17188561	-179.20474	0.025713234	-141.98873	0.025710274	-141.94343	0.16257327	-165.28427	
10.71	0.17890282	-178.12911	0.025795675	-143.21193	0.025668287	-143.36813	0.16799585	-165.586	
10.81	0.18600178	-177.23756	0.025810466	-144.73914	0.025700753	-144.70634	0.17839186	-165.27664	
10.91	0.19213884	-176.20334	0.025798982	-146.04349	0.025689318	-146.17509	0.18574707	-163.92865	
11.01	0.19852094	-175.48314	0.025803774	-147.46927	0.025741463	-147.48007	0.19060085	-162.96314	
11.11	0.20403399	-174.42309	0.025815304	-148.71718	0.025747036	-148.74908	0.19463738	-162.87335	
11.21	0.20864651	-173.78316	0.02578477	-150.0643	0.025802588	-150.2637	0.20234414	-162.58706	
11.31	0.21320817	-173.16576	0.025787305	-151.52056	0.025757633	-151.51106	0.20711996	-161.46143	
11.41	0.21790006	-172.62874	0.025788745	-152.70956	0.025676168	-152.79296	0.20977972	-160.63155	
11.51	0.2218441	-172.00149	0.025707262	-154.21509	0.025695426	-154.21339	0.21133465	-160.87172	
11.61	0.22532232	-171.65677	0.025774067	-155.49047	0.025652693	-155.43467	0.21799619	-161.02643	
11.71	0.22872048	-171.26822	0.025729317	-156.87049	0.025625849	-156.81459	0.2205528	-160.18236	
11.81	0.23193808	-170.99682	0.02572391	-158.27112	0.025588038	-158.34602	0.22218227	-160.33862	
11.91	0.23491071	-170.82427	0.025664736	-159.67792	0.025644061	-159.59962	0.22417589	-160.59971	
12.01	0.23770131	-170.6587	0.025560573	-160.96342	0.025595911	-161.02262	0.22944439	-160.92652	
12.11	0.24075894	-170.64043	0.025620305	-162.48514	0.025499655	-162.36354	0.2312284	-160.31285	
12.21	0.24373651	-170.65782	0.025554904	-163.70237	0.02549026	-163.79157	0.23235679	-160.96676	
12.31	0.24667414	-170.81581	0.025481908	-165.3004	0.025461381	-165.2328	0.23568965	-161.42653	
12.41	0.24946719	-171.1904	0.025225916	-166.9942	0.025208497	-167.0789	0.24127831	-161.93491	
12.51	0.25142527	-171.5655	0.024905523	-168.08469	0.024739771	-168.13479	0.24313835	-161.33475	
12.61	0.2530777	-171.73764	0.024663939	-168.50554	0.024624217	-168.54974	0.24422705	-162.3569	
12.71	0.25615632	-171.49537	0.024806586	-169.36254	0.024809442	-169.33874	0.24965651	-162.78309	
12.81	0.25904242	-171.53356	0.024925174	-170.594	0.024896494	-170.5145	0.25431149	-163.08257	
12.91	0.26308026	-171.59792	0.025056241	-171.79711	0.0249641	-171.79471	0.25772777	-162.75267	
13.01	0.26651955	-171.76132	0.025039484	-173.21742	0.025004914	-173.20232	0.25998858	-163.59621	
13.11	0.27119233	-171.93997	0.025085778	-174.52625	0.025013679	-174.56335	0.26603647	-163.98576	
13.21	0.27517978	-171.97542	0.025040501	-176.01205	0.02499154	-176.17605	0.2705125	-164.15613	
13.31	0.27903727	-172.16201	0.02497864	-177.52338	0.02492406	-177.50608	0.27496396	-164.14293	
13.41	0.28363084	-172.24117	0.024912033	-178.39295	0.024771891	-178.40605	0.27852028	-164.71261	
13.51	0.28836965	-172.2001	0.024888434	-179.61711	0.024814045	-179.68681	0.28605248	-164.99298	
13.61	0.29336955	-172.19412	0.024912042	179.07793	0.024846163	179.01703	0.29193475	-164.84691	
13.71	0.29922078	-172.13808	0.02487841	177.87197	0.024887004	177.61957	0.29693578	-164.68495	
13.81	0.30453908	-171.81358	0.02491567	176.45992	0.024826904	176.47482	0.30212152	-165.03501	
13.91	0.30987532	-171.63569	0.024874192	175.08529	0.024774162	175.15219	0.31148926	-164.79958	
14.01	0.31620867	-171.36542	0.024834953	173.75025	0.024800666	173.79385	0.31655202	-164.26579	
14.11	0.32164077	-170.84758	0.024760557	172.37435	0.024678025	172.50505	0.32330094	-163.91953	
14.21	0.32669656	-170.40597	0.024671476	171.3443	0.02468284	171.2901	0.32915908	-163.72683	
14.31	0.33288604	-169.85993	0.024714637	170.19034	0.024612415	170.21414	0.33853646	-163.06627	
14.41	0.33846362	-169.17515	0.024676104	168.90096	0.024574042	168.84546	0.34278886	-162.19909	
14.51	0.3442797	-168.41032	0.024626413	167.7334	0.024541503	167.5823	0.34951354	-161.68772	
14.61	0.34972262	-167.58819	0.024534981	166.42524	0.024549109	166.46064	0.35492871	-160.94855	
14.71	0.35474978	-166.66756	0.024535819	165.27034	0.024527346	165.35164	0.36358281	-160.09136	
14.81	0.35976243	-165.88968	0.024517347	163.97096	0.024444068	164.02356	0.36765936	-158.75062	
14.91	0.36457941	-164.71369	0.024450691	162.88549	0.024349561	162.70009	0.37263809	-158.09168	
15.01	0.36815088	-163.70434	0.024398744	161.66808	0.024303424	161.52758	0.37775795	-157.0024	
15.11	0.3714326	-162.67408	0.024274531	160.91956	0.024213125	160.73216	0.38412289	-156.03185	
15.21	0.37472446	-161.57225	0.024306363	159.94326	0.024256045	160.00196	0.38747916	-154.44047	
15.31	0.37764149	-160.39516	0.024487906	158.88258	0.024423149	158.73258	0.39098954	-153.63865	
15.41	0.37981173	-159.30739	0.024633482	157.59951	0.024489268	157.59041	0.39597357	-152.24641	
15.51	0.38148214	-158.09975	0.024573224	156.22705	0.024556255	156.34405	0.3994527	-151.01537	
15.61	0.38086016	-156.8589	0.024522135	154.89622	0.024468553	154.86712	0.40110331	-149.37133	
15.71	0.37945997	-155.6345	0.024400338	153.76542	0.024341417	153.84552	0.40164065	-148.48017	
15.81	0.37958005	-154.16981	0.024472533	153.11455	0.024413437	152.78355	0.40557542	-147.07061	
15.91	0.37952138	-152.81235	0.024538723	151.93109	0.0244513	152.09639	0.40597249	-145.59913	
16.01	0.37644517	-151.58082	0.02456466	150.51717	0.024508163	150.73237	0.40514107	-144.11336	
16.11	0.37218783	-150.22516	0.024459239	149.23673	0.024363683	149.28433	0.40346671	-143.07066	
16.21	0.36795941	-148.54649	0.024200599	148.86881	0.02416997	148.67351	0.40516457	-141.69211	
16.31	0.36594076	-146.74763	0.024358457	148.52741	0.024277266	148.57801	0.40204805	-140.10897	
16.41	0.36279556	-145.20639	0.02463014	148.02654	0.024553697	147.79934	0.39817586	-138.92602	
16.51	0.35853115	-144.02615	0.024953478	146.96778	0.024910422	146.89308	0.3926255	-137.87991	
16.61	0.35326745	-143.07989	0.025380796	146.00161	0.025258365	145.94661	0.38959386	-136.90297	
16.71	0.3468487	-142.07864	0.025642797	144.8853	0.025669381	144.8676	0.38410473	-135.57013	
16.81	0.33758757	-141.25874	0.026208917	143.56037	0.02613359	143.54797	0.37665146	-134.56617	
16.91	0.32851477	-140.45749	0.026712603	141.58028	0.026482941	141.54698	0.3685274	-133.79432	
17.01	0.31691163	-139.88359	0.026818153	139.86129	0.026787296	139.79049	0.3615192	-133.06183	
17.11	0.30437734	-139.62135	0.027024815	138.32069	0.026996827	138.30249	0.35122331	-132.16394	
17.21	0.28945158	-139.75436	0.027506546	136.78976	0.027304619	136.70437	0.34004317	-131.59154	
17.31	0.27242528	-140.00438	0.027885879	134.79191	0.027824951	134.9404	0.32761327	-131.3415	
17.41	0.25118623	-140.55834	0.028220273	132.87463	0.028233271	132.94504	0.31605218	-131.1854	
17.51	0.227599	-140.85912	0.028674503	130.47907	0.028532903	130.33358	0.29989957	-131.20348	
17.61	0.20343094	-140.33244	0.028913145	127.99377	0.028786928	127.89257	0.28504535	-131.91159	
17.71	0.18266514	-139.83365	0.029328127	125.32428	0.029233737	125.45738	0.2685458	-132.79794	
17.81	0.16032151	-141.8877	0.029500979	122.00357	0.029470427	121.87317	0.2534103	-133.88117	
17.91	0.13530557	-142.81074	0.028770312	118.34876	0.028641421	118.41166	0.23227463	-135.06162	
18.01	0.11272997	-141.47193	0.027832376	116.68409	0.027698123	116.78908	0.21372615	-138.63492	
18.11	0.10012744	-143.54842	0.027513738	116.35617	0.027491571	116.53676	0.19591713	-141.47884	
18.21	0.089099412	-151.77406	0.027841293	115.37421	0.027700618	115.564	0.1765632	-147.27896	
18.31	0.077439475	-165.96735	0.028163779	113.90828	0.028199468	113.97038	0.15845486	-153.00883	
18.41	0.070732873	172.08274	0.028643263	112.36745	0.028551077	112.20775	0.14357529	-164.24928	
18.51	0.072360312	149.28839	0.029412594	110.4281	0.029274085	110.5769	0.13976251	-173.21629	
18.61	0.085271308	132.1093	0.030129246	107.63932	0.03008765	107.61512	0.13449647	174.97761	
18.71	0.10382552	121.68939	0.030580954	104.29954	0.030573913	104.16584	0.13668734	163.54632	
18.81	0.13138112	112.06517	0.030720399	100.84974	0.030695653	100.60685	0.14602007	149.64713	
18.91	0.16209575	106.49408	0.030803008	97.438112	0.0307534	97.478707	0.16625597	141.25966	
19.01	0.18951643	101.62751	0.030650629	94.574935	0.03054495	94.66523	0.18355566	133.53543	
19.11	0.21406847	97.231832	0.030632717	91.766503	0.030548191	91.919706	0.20753023	128.0655	
19.21	0.23668221	96.138078	0.030691757	88.787533	0.030748345	88.917333	0.22995675	123.37452	
19.31	0.25962999	96.283836	0.030785422	85.382258	0.030679277	85.347158	0.25826068	119.88202	
19.41	0.28571719	96.567585	0.030409865	82.200166	0.030318973	82.086866	0.28276187	117.23633	
19.51	0.31281916	96.321488	0.029935009	79.092157	0.029962593	79.073357	0.30994513	115.16375	
19.61	0.33964386	96.190273	0.029412543	76.028865	0.029341513	76.03377	0.33520818	114.03339	
19.71	0.36390525	95.964212	0.028643089	73.746461	0.028587083	73.629863	0.35782591	113.22415	
19.81	0.38643264	95.716221	0.028184266	71.987479	0.028090321	72.168561	0.38013644	112.07099	
19.91	0.40279327	96.127064	0.027933972	70.102004	0.02794362	70.291994	0.40493934	111.54801	
20.01	0.4173919	97.123164	0.027857213	68.471378	0.027937508	68.038278	0.42742302	111.50173	
