!
! Hittite Microwave Corporation
! 2 Elizabeth Drive
! Chelmsford, MA 01824
! http://www.hittite.com
! Tel: 978-250-3343
! Fax: 978-250-3373
! 
! Device:      HMC424LP3
! Description: 0.5 dB GaAs MMIC 6-Bit Digital Attenuator
! Frequency:    DC -  13.00 GHz
! Package:     LP3  - 3x3 mm Quad Flatpack No-Lead (QFN) Plastic Package: 16 pin
! Ports:       2 RF, 7 DC
!              Pad  1  = Ground
!              Pad  2  = RF IN   =  Port 1
!              Pad  3  = Ground
!              Pad  4  = V6
!              Pad  5  = V5
!              Pad  6  = V4
!              Pad  7  = V3
!              Pad  8  = V2
!              Pad  9  = V1
!              Pad 10  = Ground
!              Pad 11  = RF OUT  = Port 2
!              Pad 12  = Ground
!              Pad 15  = VEE
!
! Control:     -5 Volt control voltage
! State:        48 
! Attenuation:  24.0 dB
! Voltages:    Vdd = -5.00 Volts  Idd =  -2.265 mA
!              V1  = 0.00 Volts  I1  =  30.0 uA
!              V2  = 0.00 Volts  I2  =  29.0 uA
!              V3  = 0.00 Volts  I3  =  29.0 uA
!              V4  = 0.00 Volts  I4  =  29.0 uA
!              V5  = -5.00 Volts  I5  =  -1.0 uA
!              V6  = -5.00 Volts  I6  =  -1.0 uA
!
! Data:    The device was measured on evaluation board 105354-1. 
!          Data was collected using a calibrated network analyzer.
!          The evaluation circuit board was modeled and simulated.  This was use
!          to removed the evaluation board circuit from the measured data.
!          The reference plane is the edge of the package pin.
!
! Misc:    Lot xxxx, Unit 1
!          Application 20120001, Data collected in Application 20090083
!
! Date Measured:  2009-09-15
! Date:           2012-05-14  MJV
! Note: 
!   Hittite supplies this data as a sample of measured data at the package pin
!   for this product.  Your particular data for this product may vary.
!   Data was taken at 25 degrees C.
!   Hittite reserves the right to change this data at anytime.
!
# GHz S MA R 50

0.01	0.10473497	2.2189924	0.047120564	-1.767677	0.048770867	-2.460077	0.042190604	6.7962247	
0.11	0.10179202	-3.181906	0.04847051	-2.2162437	0.048192293	-2.0099437	0.039581711	0.52830751	
0.21	0.10238214	-5.8543024	0.048287108	-3.4412422	0.048320475	-3.4928422	0.038841833	-7.6408484	
0.31	0.10391405	-8.3152435	0.048279731	-4.7910926	0.048152057	-4.8754926	0.044151373	-10.207452	
0.41	0.10481854	-10.94732	0.048280264	-6.2611291	0.048180316	-6.2696291	0.044864501	-10.912655	
0.51	0.10664363	-13.438492	0.048123657	-7.6965141	0.048062751	-7.6662141	0.044053737	-13.171462	
0.61	0.1079777	-16.164779	0.048109338	-9.1026882	0.048037388	-9.1520882	0.045336724	-19.699526	
0.71	0.11078609	-18.52258	0.048120787	-10.554999	0.04793831	-10.573199	0.051815519	-21.229312	
0.81	0.11274739	-20.729486	0.04804495	-11.950448	0.047840724	-11.866548	0.051699013	-19.983144	
0.91	0.11582911	-22.778717	0.047917358	-13.300729	0.047829172	-13.349829	0.053034499	-24.806138	
1.01	0.11784677	-24.464351	0.047866466	-14.702099	0.047805886	-14.669899	0.056430273	-28.210344	
1.11	0.12052521	-26.410546	0.047891229	-16.024311	0.047742591	-16.116211	0.062999152	-27.512162	
1.21	0.12258359	-27.935604	0.047721185	-17.413451	0.047704706	-17.452951	0.061669953	-25.853874	
1.31	0.12511092	-29.638525	0.047784676	-18.841561	0.047685754	-18.758061	0.064038778	-30.518511	
1.41	0.12733453	-30.888538	0.047743083	-20.173194	0.047600384	-20.161894	0.068749022	-30.945165	
1.51	0.12922099	-32.462902	0.047712821	-21.558744	0.047570213	-21.559244	0.072810898	-29.609622	
1.61	0.13154709	-33.61987	0.047603199	-22.815947	0.047482781	-22.882647	0.070926239	-28.533041	
1.71	0.13294835	-34.960818	0.047546854	-24.279618	0.047497613	-24.205718	0.072650878	-32.883398	
1.81	0.13470938	-36.170451	0.047505648	-25.631269	0.047380021	-25.556269	0.077067103	-32.537425	
1.91	0.13548752	-37.336471	0.047505045	-26.988372	0.047335801	-26.963172	0.078314723	-31.817593	
2.01	0.13635979	-38.618345	0.04737574	-28.305601	0.047348476	-28.311101	0.07605543	-31.998219	
2.11	0.13693875	-40.007851	0.047343102	-29.659984	0.047304963	-29.663484	0.078007949	-36.49097	
2.21	0.13768957	-41.529269	0.047281366	-31.051983	0.04721609	-30.981483	0.082506546	-35.976324	
2.31	0.13819044	-42.905623	0.047310524	-32.424365	0.047098574	-32.444765	0.081691636	-35.75215	
2.41	0.1383052	-44.575295	0.047243254	-33.591155	0.047188895	-33.715755	0.079983188	-37.590573	
2.51	0.13849375	-46.164217	0.047179387	-35.131212	0.047130526	-35.093512	0.08265762	-41.707275	
2.61	0.13833001	-47.90804	0.047069505	-36.286499	0.047020759	-36.490699	0.086688838	-41.021346	
2.71	0.13891816	-49.710742	0.04710464	-37.903238	0.04705044	-37.765838	0.084257876	-41.6109	
2.81	0.13825999	-51.622075	0.046982693	-39.087931	0.04688543	-39.101731	0.083740761	-44.468596	
2.91	0.13897475	-53.706825	0.046971419	-40.454114	0.046895771	-40.494814	0.086873848	-47.902053	
3.01	0.13880644	-55.809922	0.046877078	-41.819017	0.046828531	-41.814617	0.090284888	-47.153782	
3.11	0.13937658	-57.909196	0.046916345	-43.062126	0.046781503	-43.233426	0.086852162	-48.337105	
3.21	0.13930307	-60.077912	0.046824163	-44.529148	0.046813382	-44.574448	0.087419179	-52.076447	
3.31	0.13999641	-62.427702	0.046770734	-45.91305	0.04671154	-45.87465	0.090635677	-54.516635	
3.41	0.14072391	-64.793357	0.046726157	-47.343847	0.046634794	-47.174847	0.092809739	-54.184602	
3.51	0.14175583	-67.171241	0.046610145	-48.537909	0.046561874	-48.630109	0.089377921	-56.538257	
3.61	0.1427743	-69.650785	0.04659762	-50.050126	0.046570804	-49.951626	0.091767687	-60.910422	
3.71	0.14475899	-71.98042	0.046510745	-51.357941	0.046446533	-51.346341	0.095697461	-62.642245	
3.81	0.14664805	-74.249575	0.046477203	-52.700535	0.046316953	-52.755035	0.096713845	-62.852527	
3.91	0.14877399	-76.523083	0.046340443	-54.050571	0.046271138	-53.976671	0.094320638	-66.478364	
4.01	0.15712618	-77.515142	0.04640053	-55.30396	0.046240544	-55.26596	0.10676974	-68.325789	
4.11	0.15953411	-79.189169	0.04633096	-56.673781	0.04621908	-56.632181	0.11096479	-68.614832	
4.21	0.16227794	-80.867896	0.04616729	-58.014313	0.046161975	-57.929913	0.11192323	-68.956391	
4.31	0.16554384	-82.23648	0.0461334	-59.218386	0.0460538	-59.409786	0.11187478	-71.718468	
4.41	0.16801215	-83.430123	0.046122695	-60.77208	0.046048414	-60.78278	0.11900759	-73.463814	
4.51	0.17059915	-84.594659	0.046048274	-62.117075	0.045926501	-62.060975	0.1221359	-72.488996	
4.61	0.17325275	-85.701863	0.045978407	-63.415803	0.045809328	-63.270403	0.12257427	-72.639313	
4.71	0.17626073	-86.535565	0.045883649	-64.690209	0.045820303	-64.668309	0.12310971	-74.404607	
4.81	0.17835895	-87.393816	0.045770215	-66.002978	0.045664947	-66.072378	0.13008765	-75.225926	
4.91	0.18100913	-88.065489	0.045627108	-67.348779	0.045558869	-67.312379	0.1317731	-73.471216	
5.01	0.1828368	-88.682237	0.045584835	-68.639645	0.04551666	-68.647645	0.13094132	-73.938188	
5.11	0.18532709	-89.008483	0.045552248	-69.919885	0.045437018	-69.977085	0.13193449	-75.069123	
5.21	0.18669541	-89.448621	0.045472291	-71.292415	0.045404285	-71.293115	0.13783704	-75.500166	
5.31	0.18854343	-89.699082	0.045351588	-72.571637	0.045351588	-72.573937	0.13874954	-73.353815	
5.41	0.18955622	-89.79699	0.045337481	-73.881932	0.045248834	-73.959332	0.13711213	-74.144514	
5.51	0.19065554	-89.886393	0.045266475	-75.15822	0.045230009	-75.14232	0.139786	-74.749536	
5.61	0.19116348	-89.744145	0.045155361	-76.481792	0.045087829	-76.530892	0.14433353	-74.608473	
5.71	0.1909053	-89.74972	0.045095737	-77.824036	0.044966127	-77.842936	0.14438025	-72.246212	
5.81	0.19081199	-89.409642	0.045047763	-79.014347	0.045021839	-79.082447	0.14198065	-72.883653	
5.91	0.18969237	-89.312291	0.045002366	-80.32327	0.044873025	-80.36237	0.1457869	-72.954496	
6.01	0.18875105	-88.961647	0.044940747	-81.634572	0.044909713	-81.691872	0.14926482	-71.67611	
6.11	0.18714336	-88.648243	0.044887191	-82.973974	0.044809741	-82.850374	0.14814311	-69.22967	
6.21	0.18479882	-87.932843	0.044853973	-84.217834	0.04482816	-84.175934	0.14471138	-69.431444	
6.31	0.18224768	-87.704029	0.044902881	-85.551039	0.044773826	-85.466139	0.14803059	-68.92948	
6.41	0.17894352	-86.909965	0.044846616	-86.77482	0.044743471	-86.82122	0.14888227	-66.934608	
6.51	0.17476599	-86.350867	0.044760577	-88.078251	0.044683345	-88.117351	0.14648637	-64.374155	
6.61	0.1699795	-85.756989	0.044819205	-89.482486	0.044721272	-89.430086	0.14146668	-64.073423	
6.71	0.16496831	-85.356213	0.044826952	-90.844571	0.044713556	-90.805071	0.14311074	-63.40138	
6.81	0.15973019	-84.718229	0.044797255	-92.199322	0.04474571	-92.133122	0.14116945	-60.968473	
6.91	0.15346274	-84.26152	0.044804661	-93.550276	0.044665602	-93.545076	0.13714468	-58.949211	
7.01	0.14704604	-83.930719	0.044806768	-94.951245	0.044683133	-94.975645	0.13083072	-58.374078	
7.11	0.14018485	-83.639183	0.044837603	-96.346527	0.044713883	-96.394627	0.13148579	-58.250709	
7.21	0.13256019	-83.418867	0.044771385	-97.71678	0.044601609	-97.74848	0.12773454	-55.165877	
7.31	0.12451763	-83.28432	0.044794282	-99.117422	0.044696404	-99.112022	0.121357	-54.231389	
7.41	0.11652852	-83.504619	0.044916589	-100.55687	0.04476172	-100.58227	0.11559649	-54.191152	
7.51	0.10762079	-83.78154	0.044917612	-101.99843	0.044819464	-102.03413	0.11454936	-54.25117	
7.61	0.099050933	-84.709468	0.044925145	-103.5468	0.044826981	-103.4895	0.11036739	-51.240399	
7.71	0.089855604	-85.81416	0.045002746	-105.00541	0.044826932	-105.06131	0.10236733	-50.60283	
7.81	0.081040372	-88.067184	0.044989756	-106.52955	0.044943163	-106.63815	0.096470902	-50.848633	
7.91	0.07207737	-90.530083	0.045019669	-108.07699	0.044931643	-108.03199	0.093365267	-51.136308	
8.01	0.063100034	-94.360715	0.044972667	-109.65879	0.044807287	-109.64449	0.087362351	-48.172336	
8.11	0.054953686	-100.68335	0.045038551	-111.24309	0.044883262	-111.22389	0.07782555	-48.702137	
8.21	0.047979826	-108.98148	0.044916567	-112.77226	0.044828742	-112.75006	0.071189409	-50.15369	
8.31	0.042247184	-120.55078	0.04499618	-114.27351	0.044866857	-114.31351	0.066523467	-50.97589	
8.41	0.039424799	-135.23641	0.044897267	-115.88434	0.044799164	-115.86764	0.058660063	-48.5587	
8.51	0.040197484	-151.24461	0.044995759	-117.52643	0.044876769	-117.61623	0.047538917	-52.364392	
8.61	0.043970901	-164.81123	0.04489589	-119.23183	0.044859723	-119.15743	0.041071736	-59.813536	
8.71	0.050622964	-176.3563	0.044952991	-120.75335	0.044839276	-120.77395	0.035641496	-65.883878	
8.81	0.059231635	176.06584	0.044886465	-122.36521	0.044772918	-122.27101	0.02692955	-72.263664	
8.91	0.06909097	171.22632	0.044915075	-123.99609	0.044842739	-123.94429	0.022246532	-102.40545	
9.01	0.078385195	168.06653	0.04485317	-125.61676	0.044719109	-125.64596	0.025689119	-122.31795	
9.11	0.088818559	164.88706	0.044802198	-127.32168	0.044719745	-127.34148	0.030672334	-137.78421	
9.21	0.099837688	163.79799	0.044723639	-129.02798	0.044595099	-128.89568	0.034500226	-149.69385	
9.31	0.10975465	162.25138	0.044645727	-130.71517	0.044568694	-130.65357	0.046568955	-161.43372	
9.41	0.12126407	161.77351	0.044552593	-132.35291	0.044496206	-132.38031	0.056346161	-159.91083	
9.51	0.13126843	161.53956	0.044260928	-133.88751	0.044199822	-133.93231	0.062228815	-164.1763	
9.61	0.14164539	161.46809	0.044067786	-135.28514	0.04395125	-135.29884	0.072772529	-166.99679	
9.71	0.15110082	162.04241	0.044006605	-136.76205	0.043930674	-136.83545	0.084004792	-167.79235	
9.81	0.1599272	162.47524	0.043830288	-138.39539	0.043694254	-138.31659	0.09292727	-166.7349	
9.91	0.16835322	163.02364	0.043645999	-139.48727	0.043500519	-139.58867	0.099500376	-167.97143	
10.01	0.17629271	163.49629	0.043640316	-141.07987	0.0435199	-141.01107	0.11017656	-168.97137	
10.11	0.18448189	164.20911	0.043402891	-142.47906	0.043342969	-142.60696	0.1211404	-168.72839	
10.21	0.19144503	164.87436	0.043214497	-143.81064	0.043115106	-143.85024	0.12938274	-167.12007	
10.31	0.19850611	165.81147	0.043077312	-145.11548	0.043022793	-144.96698	0.1347372	-167.53329	
10.41	0.20414231	166.40851	0.043006747	-146.28626	0.042972102	-146.30246	0.14570283	-167.67672	
10.51	0.21076826	167.13085	0.043044267	-147.55223	0.042895854	-147.46033	0.15583362	-166.72804	
10.61	0.21621036	168.03926	0.043064167	-148.87369	0.043064167	-148.87469	0.16288505	-165.39329	
10.71	0.22087273	168.78561	0.043023463	-150.27984	0.042884995	-150.18954	0.16834642	-165.6565	
10.81	0.22564542	169.54586	0.043031594	-151.64993	0.042942511	-151.72043	0.17861807	-165.37791	
10.91	0.22923792	170.27327	0.042985674	-152.91163	0.042975778	-152.93983	0.1861443	-164.03782	
11.01	0.23303187	170.92639	0.042957532	-154.30055	0.042917985	-154.25315	0.1908124	-163.07766	
11.11	0.23584112	171.76169	0.042891405	-155.62344	0.04277798	-155.64794	0.19495939	-163.00491	
11.21	0.23792973	172.27722	0.042883259	-156.96687	0.042828985	-156.98537	0.20261295	-162.70176	
11.31	0.2399514	172.78488	0.042878385	-158.30003	0.042814257	-158.26323	0.20739768	-161.55266	
11.41	0.24203861	173.22849	0.042838608	-159.51706	0.042749924	-159.55546	0.21006206	-160.71584	
11.51	0.24346245	173.78917	0.042813153	-160.85567	0.042758968	-160.86287	0.21146499	-160.93759	
11.61	0.24448462	174.08495	0.042715644	-162.30039	0.042671407	-162.29679	0.21834653	-161.13168	
11.71	0.24544427	174.41882	0.042742011	-163.68456	0.042628981	-163.58236	0.22075245	-160.25514	
11.81	0.24623411	174.67803	0.042673402	-164.96189	0.042619394	-165.05119	0.22226455	-160.44972	
11.91	0.24673551	174.86466	0.042620137	-166.31575	0.042531906	-166.31705	0.22428733	-160.66599	
12.01	0.2474721	175.01531	0.042589449	-167.77015	0.042540444	-167.72155	0.22949394	-160.9892	
12.11	0.2480275	175.12144	0.042567447	-169.23849	0.042454878	-169.11789	0.23118113	-160.40011	
12.21	0.24877163	175.17362	0.042467488	-170.50759	0.042423507	-170.49259	0.23237761	-161.03812	
12.31	0.2495692	175.14096	0.042411677	-172.08543	0.042372632	-172.07933	0.23573846	-161.51907	
12.41	0.25072197	174.93131	0.04213772	-173.72543	0.042060171	-173.63263	0.24126349	-161.9724	
12.51	0.2510898	174.62718	0.041814826	-174.9591	0.041771522	-174.876	0.24305734	-161.3965	
12.61	0.25104411	174.4874	0.041575733	-175.82191	0.041513554	-175.76931	0.24416642	-162.40164	
12.71	0.25154209	174.79089	0.041634833	-176.78117	0.041558209	-176.72007	0.24958988	-162.86404	
12.81	0.25219087	174.8989	0.041753589	-178.05792	0.041700745	-177.98732	0.25430221	-163.15854	
12.91	0.25388958	175.06589	0.041809887	-179.3329	0.041756972	-179.3629	0.25762957	-162.80886	
13.01	0.25516843	175.13012	0.041914821	179.24391	0.041760685	179.30731	0.259878	-163.63644	
13.11	0.25773148	175.2259	0.041864084	177.81582	0.041806286	177.95692	0.26606406	-164.06463	
13.21	0.2596504	175.50011	0.04188096	176.4127	0.041736557	176.4457	0.27054736	-164.21792	
13.31	0.26146534	175.58023	0.041679707	174.8815	0.041684506	175.0174	0.2748338	-164.20602	
13.41	0.26395902	175.79322	0.041634638	173.81951	0.041529318	173.80821	0.27837097	-164.74797	
13.51	0.26653146	176.20728	0.041550438	172.51039	0.041507407	172.55099	0.28604734	-165.05344	
13.61	0.26951499	176.52902	0.041560565	171.24106	0.041474527	171.31536	0.29190359	-164.88684	
13.71	0.27318615	177.05848	0.041539377	169.87126	0.041458155	169.92396	0.29675349	-164.71909	
13.81	0.27620408	177.79324	0.041533269	168.43694	0.041385301	168.53674	0.30202056	-165.06636	
13.91	0.27945296	178.38202	0.041363009	167.19458	0.041353486	167.07398	0.311286	-164.82531	
14.01	0.2836494	179.11471	0.04135065	165.86297	0.041293561	165.87337	0.31653335	-164.29598	
14.11	0.28691611	-179.86662	0.041274543	164.5349	0.041118027	164.4889	0.32311811	-163.93143	
14.21	0.28994277	-178.98964	0.041160205	163.22701	0.041098647	163.25881	0.3291168	-163.7398	
14.31	0.29418486	-177.96217	0.041160719	161.93703	0.041023523	161.91283	0.33834649	-163.08027	
14.41	0.29776498	-176.7722	0.041025096	160.62114	0.040973174	160.74974	0.34275255	-162.1932	
14.51	0.30157189	-175.51408	0.04100576	159.37361	0.040911449	159.33981	0.34956452	-161.70336	
14.61	0.30506727	-174.15647	0.040960877	158.24481	0.040847854	158.11161	0.35483441	-160.94789	
14.71	0.30822216	-172.72111	0.040815541	156.76841	0.040796749	156.94551	0.3634796	-160.09046	
14.81	0.31183317	-171.40217	0.040800451	155.57089	0.040758197	155.59999	0.36756515	-158.75489	
14.91	0.31510297	-169.67986	0.040697637	154.28195	0.040646129	154.25575	0.37245924	-158.09318	
15.01	0.31736571	-168.19333	0.040641173	153.12014	0.040519701	153.07524	0.37779354	-156.99375	
15.11	0.31946957	-166.64674	0.040455701	151.93884	0.040367303	151.81264	0.38411089	-156.04045	
15.21	0.3215852	-165.03461	0.040457643	151.05265	0.040383185	150.95375	0.3877935	-154.41964	
15.31	0.32358221	-163.31709	0.040562427	149.89522	0.040450504	149.79022	0.39097995	-153.63465	
15.41	0.32505215	-161.73157	0.040673651	148.58479	0.040519414	148.62499	0.3959822	-152.25204	
15.51	0.32631625	-160.01825	0.040650366	147.43617	0.040528866	147.37257	0.3993592	-151.0241	
15.61	0.32528832	-158.27097	0.040556882	146.02911	0.04051488	145.90641	0.40105884	-149.36794	
15.71	0.32369563	-156.60459	0.040415225	144.76406	0.040378018	144.76356	0.40168048	-148.49547	
15.81	0.32340283	-154.59608	0.040465323	143.83021	0.040376903	143.89931	0.4056106	-147.10899	
15.91	0.3231018	-152.73505	0.040574842	142.68776	0.040453568	142.71156	0.40583163	-145.60974	
16.01	0.32050374	-150.98942	0.040630332	141.36204	0.04048558	141.19864	0.4050653	-144.13735	
16.11	0.31648086	-149.13157	0.04050152	140.02923	0.040464234	139.95363	0.40345382	-143.09833	
16.21	0.31243106	-146.84203	0.040276339	139.01935	0.04023926	139.20195	0.40525897	-141.72451	
16.31	0.3106513	-144.40562	0.040286939	138.47153	0.040235951	138.42993	0.40181335	-140.15795	
16.41	0.30834458	-142.18267	0.040696149	137.56364	0.04058853	137.63124	0.39816674	-138.9773	
16.51	0.30498332	-140.36088	0.041115344	136.54003	0.040950002	136.57093	0.3927285	-137.91569	
16.61	0.30083947	-138.81005	0.041460052	135.36876	0.041293323	135.36266	0.38954374	-136.94356	
16.71	0.2958308	-137.16052	0.041796326	134.18233	0.041690596	134.17003	0.38393331	-135.63009	
16.81	0.28796354	-135.67639	0.042332124	132.73873	0.042317506	132.81373	0.37649515	-134.62858	
16.91	0.28066659	-134.15718	0.042826465	131.05988	0.042742727	131.13468	0.36836012	-133.85143	
17.01	0.27078241	-132.82013	0.04311575	129.36958	0.043090937	129.42048	0.36127035	-133.12687	
17.11	0.26050092	-131.73975	0.043377447	127.7163	0.043337513	127.8355	0.35116918	-132.22004	
17.21	0.24749665	-131.03751	0.043802755	126.09172	0.043691951	126.08433	0.3398351	-131.62795	
17.31	0.23253173	-130.39783	0.04425834	124.27264	0.044171801	124.21695	0.32732277	-131.4139	
17.41	0.21305564	-129.79312	0.044714794	122.14487	0.04450935	122.22506	0.3155697	-131.27247	
17.51	0.19155949	-128.65493	0.044890791	120.09176	0.044813332	120.09627	0.29952665	-131.28964	
17.61	0.16970307	-125.97354	0.045231049	118.00942	0.045205019	118.03642	0.28425356	-131.94513	
17.71	0.15179345	-122.79955	0.045832514	115.85676	0.045685005	115.83866	0.26802222	-132.80805	
17.81	0.13107454	-121.77572	0.046186211	112.81327	0.046032264	112.97737	0.25274204	-133.93441	
17.91	0.10902297	-118.14513	0.045545076	109.72387	0.045471725	109.70217	0.23178615	-135.12129	
18.01	0.092219262	-109.82842	0.044603153	107.78451	0.044567217	107.79371	0.2134269	-138.71432	
18.11	0.082579657	-106.20608	0.044419123	106.72561	0.044337376	106.8873	0.1953783	-141.59561	
18.21	0.069118274	-107.99573	0.044823152	105.1669	0.044781888	105.19059	0.17617569	-147.37598	
18.31	0.050267276	-112.3783	0.045262997	103.10913	0.045049851	103.14753	0.15783406	-153.13011	
18.41	0.026651546	-126.51729	0.045575939	100.98303	0.04540834	101.06043	0.14289982	-164.35808	
18.51	0.010645624	165.09558	0.046208158	99.116155	0.04619752	99.095655	0.1394503	-173.48098	
18.61	0.026673895	105.5477	0.046939072	96.464278	0.046922863	96.524178	0.13388361	174.84557	
18.71	0.047795267	98.239921	0.047567539	93.391307	0.047496399	93.454707	0.13585054	163.3595	
18.81	0.077593059	93.910855	0.047739151	90.020104	0.047662263	90.021604	0.14564279	149.47852	
18.91	0.10901352	93.010914	0.047696547	86.81349	0.047647146	86.724291	0.16591841	141.05617	
19.01	0.13760175	90.689608	0.047376191	83.849413	0.047338024	83.836318	0.18295842	133.3921	
19.11	0.16414681	87.806455	0.047105403	81.188906	0.046948394	81.146209	0.2070181	127.94959	
19.21	0.18579954	88.286446	0.047204974	78.504338	0.047112675	78.452138	0.22946989	123.18826	
19.31	0.20635667	90.21751	0.04719223	75.306867	0.047083691	75.310867	0.25771952	119.74286	
19.41	0.23099423	92.156063	0.046825349	72.176835	0.046857706	72.219335	0.28200202	117.17548	
19.51	0.25799795	93.169972	0.046321355	69.08979	0.046246754	68.87709	0.30930436	115.07593	
19.61	0.28494553	94.051999	0.04553975	65.942378	0.045482111	65.944277	0.33470494	113.91952	
19.71	0.31008	94.611355	0.044621911	63.302261	0.04454492	63.328962	0.35736789	113.20547	
19.81	0.33357642	94.922505	0.043675105	61.354923	0.043599741	61.344225	0.37954138	112.06098	
19.91	0.35111458	95.780384	0.043164407	59.446215	0.04307009	59.495412	0.40429205	111.4999	
20.01	0.36623223	97.198438	0.042802268	57.312293	0.042546788	57.726493	0.42634038	111.43469	
