!
! Hittite Microwave Corporation
! 2 Elizabeth Drive
! Chelmsford, MA 01824
! http://www.hittite.com
! Tel: 978-250-3343
! Fax: 978-250-3373
! 
! Device:      HMC424LP3
! Description: 0.5 dB GaAs MMIC 6-Bit Digital Attenuator
! Frequency:    DC -  13.00 GHz
! Package:     LP3  - 3x3 mm Quad Flatpack No-Lead (QFN) Plastic Package: 16 pin
! Ports:       2 RF, 7 DC
!              Pad  1  = Ground
!              Pad  2  = RF IN   =  Port 1
!              Pad  3  = Ground
!              Pad  4  = V6
!              Pad  5  = V5
!              Pad  6  = V4
!              Pad  7  = V3
!              Pad  8  = V2
!              Pad  9  = V1
!              Pad 10  = Ground
!              Pad 11  = RF OUT  = Port 2
!              Pad 12  = Ground
!              Pad 15  = VEE
!
! Control:     -5 Volt control voltage
! State:        55 
! Attenuation:  27.5 dB
! Voltages:    Vdd = -5.00 Volts  Idd =  -2.639 mA
!              V1  = -5.00 Volts  I1  =  -1.0 uA
!              V2  = -5.00 Volts  I2  =  -1.0 uA
!              V3  = -5.00 Volts  I3  =  -1.0 uA
!              V4  = 0.00 Volts  I4  =  30.0 uA
!              V5  = -5.00 Volts  I5  =  -1.0 uA
!              V6  = -5.00 Volts  I6  =  -1.0 uA
!
! Data:    The device was measured on evaluation board 105354-1. 
!          Data was collected using a calibrated network analyzer.
!          The evaluation circuit board was modeled and simulated.  This was use
!          to removed the evaluation board circuit from the measured data.
!          The reference plane is the edge of the package pin.
!
! Misc:    Lot xxxx, Unit 1
!          Application 20120001, Data collected in Application 20090083
!
! Date Measured:  2009-09-15
! Date:           2012-05-14  MJV
! Note: 
!   Hittite supplies this data as a sample of measured data at the package pin
!   for this product.  Your particular data for this product may vary.
!   Data was taken at 25 degrees C.
!   Hittite reserves the right to change this data at anytime.
!
# GHz S MA R 50

0.01	0.10143435	174.74714	0.031609373	1.2452661	0.032799399	-0.062333942	0.042840361	5.2812943	
0.11	0.10260901	178.47115	0.032935416	-1.8624684	0.03318663	-2.1351684	0.039211841	1.0553198	
0.21	0.1015925	177.60541	0.032975909	-3.3725576	0.032937966	-3.2997576	0.038445908	-7.9163852	
0.31	0.099694856	176.69733	0.033023015	-4.6900183	0.032837245	-4.8907183	0.043595995	-10.25615	
0.41	0.098786949	175.90552	0.032939482	-6.0430093	0.032882647	-6.2567093	0.044234097	-10.881209	
0.51	0.0968316	175.17106	0.032859325	-7.4400488	0.032821516	-7.6424488	0.043530915	-13.072075	
0.61	0.095735857	174.66836	0.032808779	-8.8135915	0.03275594	-8.7206915	0.044975879	-19.742882	
0.71	0.092949828	174.073	0.032742328	-10.166894	0.032738559	-10.154994	0.051255488	-21.218415	
0.81	0.091071402	173.19617	0.03271114	-11.573072	0.03271114	-11.484972	0.051238917	-20.001546	
0.91	0.088011284	172.42619	0.032731386	-12.87639	0.032671148	-12.84619	0.052497177	-24.909152	
1.01	0.085839439	171.14221	0.032717351	-14.39789	0.032690995	-14.29909	0.055917665	-28.164221	
1.11	0.083372067	170.31447	0.032675946	-15.562563	0.032672184	-15.459063	0.062482062	-27.533825	
1.21	0.080976686	168.79275	0.032693233	-16.779465	0.032674418	-16.991165	0.061210863	-25.891435	
1.31	0.078452156	167.72947	0.032655606	-18.221786	0.032636813	-18.216686	0.063584443	-30.564754	
1.41	0.075887109	165.82985	0.032632261	-19.466507	0.032523492	-19.597707	0.068227619	-30.982774	
1.51	0.073953765	164.39735	0.032586171	-20.918347	0.032563669	-20.954747	0.072239678	-29.66699	
1.61	0.071164988	162.49305	0.032522794	-22.302761	0.032575257	-22.319561	0.070463211	-28.593715	
1.71	0.069333205	160.5415	0.032626413	-23.561246	0.032495209	-23.632546	0.072235487	-32.896237	
1.81	0.067258173	158.38094	0.032537307	-24.831503	0.032488646	-25.044203	0.076606991	-32.50133	
1.91	0.066185158	155.92104	0.032539511	-26.121576	0.032494587	-26.196976	0.077731609	-31.844704	
2.01	0.064808217	153.75313	0.032374332	-27.639885	0.032471385	-27.588085	0.075646861	-31.952796	
2.11	0.064071083	151.51511	0.032383241	-28.940855	0.032480321	-28.965055	0.077511513	-36.482457	
2.21	0.063242506	149.65185	0.032435042	-30.217664	0.032442511	-30.273264	0.082104239	-35.926379	
2.31	0.062412088	147.60202	0.032384384	-31.602257	0.032421689	-31.595757	0.081368757	-35.750724	
2.41	0.061987904	145.83294	0.032360543	-32.907225	0.032364269	-32.956725	0.079532917	-37.567808	
2.51	0.061587891	144.21784	0.032320103	-34.173458	0.032487982	-34.276158	0.082206896	-41.699253	
2.61	0.061747415	142.68996	0.032337345	-35.658875	0.032318736	-35.672175	0.086129668	-40.939115	
2.71	0.061135123	141.47445	0.032301311	-36.984151	0.032286439	-36.974551	0.083846621	-41.677591	
2.81	0.061843826	140.16277	0.032257952	-38.233432	0.032168943	-38.284732	0.08325687	-44.407556	
2.91	0.061060512	139.57856	0.032257089	-39.526517	0.032268232	-39.561917	0.086404077	-47.808855	
3.01	0.061277373	138.83479	0.032210649	-40.791898	0.032169882	-40.917398	0.08982375	-47.169497	
3.11	0.060990428	138.52274	0.032197103	-42.176491	0.03214895	-42.314091	0.086374304	-48.334663	
3.21	0.0611737	137.82837	0.032152935	-43.517066	0.032060524	-43.605366	0.086934219	-52.023677	
3.31	0.060971181	137.95411	0.032128771	-44.837894	0.032040119	-44.739994	0.090156464	-54.473986	
3.41	0.060819666	138.07261	0.032092845	-46.230335	0.032048538	-46.310735	0.092360178	-54.199411	
3.51	0.060350185	138.4899	0.032045434	-47.574155	0.032074962	-47.598655	0.088888466	-56.525154	
3.61	0.060219098	139.1859	0.031996186	-48.804631	0.031952012	-48.922031	0.091343121	-60.964694	
3.71	0.05926842	139.91652	0.032010878	-50.070643	0.031900507	-50.316643	0.095293356	-62.670623	
3.81	0.058293791	140.6349	0.031919387	-51.519737	0.03188633	-51.641337	0.096228375	-62.828058	
3.91	0.057312998	141.6503	0.031985639	-52.85358	0.031985639	-52.95838	0.09394216	-66.452701	
4.01	0.049740384	144.40867	0.031923705	-54.133864	0.031897988	-54.034264	0.10630113	-68.305766	
4.11	0.048020806	144.845	0.031982764	-55.557519	0.031839482	-55.554219	0.11046179	-68.592265	
4.21	0.04593497	145.97821	0.031841057	-56.8866	0.031833726	-56.9579	0.11152916	-68.970543	
4.31	0.042996249	147.03121	0.031855353	-58.139153	0.031807711	-58.117653	0.11150356	-71.701001	
4.41	0.040196975	147.00698	0.031863913	-59.600024	0.031783309	-59.640424	0.11855277	-73.424199	
4.51	0.037328376	147.25498	0.031759026	-60.979233	0.031777313	-61.027433	0.12156427	-72.461469	
4.61	0.034366575	147.78294	0.031726446	-62.251439	0.031689941	-62.280739	0.12217662	-72.605497	
4.71	0.030556615	148.22156	0.031691245	-63.556937	0.031647492	-63.657937	0.12265004	-74.374967	
4.81	0.027247182	147.88038	0.031693116	-64.864587	0.031653004	-64.886187	0.12971629	-75.193141	
4.91	0.023114995	147.68157	0.031622443	-66.332571	0.031586058	-66.261171	0.13130053	-73.467609	
5.01	0.019354843	146.13405	0.031580141	-67.661179	0.031543804	-67.530279	0.13052065	-73.940319	
5.11	0.01439687	143.21929	0.031561163	-69.020938	0.031593882	-68.988038	0.1315421	-75.039969	
5.21	0.010538291	135.38306	0.031525851	-70.305052	0.031565801	-70.418252	0.13741712	-75.479186	
5.31	0.0061301259	117.97397	0.031485381	-71.652087	0.031427436	-71.744687	0.13832112	-73.321786	
5.41	0.0048067166	62.572574	0.031455058	-73.026577	0.031444195	-73.159077	0.13683031	-74.104794	
5.51	0.0078350448	20.476396	0.031357686	-74.469965	0.031397423	-74.489765	0.13937178	-74.745904	
5.61	0.013381298	7.8637594	0.03134109	-75.830774	0.031247415	-75.896874	0.14407402	-74.551927	
5.71	0.018693706	4.5511232	0.031274668	-77.241949	0.031177602	-77.098749	0.1440754	-72.212441	
5.81	0.025206247	1.9931387	0.031320516	-78.450026	0.031151496	-78.509326	0.14174246	-72.768155	
5.91	0.030840458	1.9870284	0.031117741	-79.809901	0.031171526	-79.852001	0.14542233	-72.949668	
6.01	0.037341252	1.64985	0.031104229	-81.249222	0.031021975	-81.265122	0.14897133	-71.612709	
6.11	0.04365912	1.8131142	0.030982373	-82.556104	0.03105022	-82.507704	0.14786039	-69.181485	
6.21	0.051159138	2.8197251	0.030967956	-83.96178	0.030950135	-83.95018	0.14441512	-69.397467	
6.31	0.057142412	3.6836359	0.03098472	-85.197569	0.030909899	-85.277269	0.14771446	-68.858941	
6.41	0.064884154	4.7192777	0.030886322	-86.504687	0.030850784	-86.540387	0.14850653	-66.863324	
6.51	0.07169092	6.2432997	0.030878122	-87.953294	0.030842593	-87.950794	0.14617191	-64.289601	
6.61	0.078803967	7.9058611	0.030856022	-89.233441	0.030792145	-89.400441	0.14111635	-64.021572	
6.71	0.085101806	9.2811968	0.030827487	-90.671564	0.030760127	-90.787764	0.14290245	-63.318139	
6.81	0.091861738	10.563049	0.030750672	-92.16435	0.030715289	-92.04985	0.14080946	-60.855982	
6.91	0.098433935	12.154531	0.030699247	-93.515985	0.030656863	-93.477385	0.13688112	-58.862054	
7.01	0.10427192	13.686205	0.030639745	-95.00085	0.030643272	-95.00325	0.13058506	-58.271583	
7.11	0.11024709	15.126682	0.030530176	-96.345786	0.030509094	-96.386786	0.13117424	-58.100904	
7.21	0.11564085	16.810943	0.030457738	-97.807809	0.030391186	-97.738609	0.12741384	-55.047326	
7.31	0.12135999	18.497574	0.030488454	-99.051822	0.030400828	-99.028622	0.1210793	-54.092826	
7.41	0.12621979	20.116561	0.030414786	-100.28706	0.030362307	-100.38066	0.11531472	-54.000948	
7.51	0.13135652	21.742502	0.030360052	-101.79138	0.030342581	-101.82248	0.11420826	-54.05352	
7.61	0.13516781	23.282913	0.03035729	-103.08214	0.030315379	-103.21384	0.11007932	-51.038461	
7.71	0.13923639	24.904185	0.03040221	-104.73375	0.030307851	-104.69975	0.10218726	-50.359433	
7.81	0.14194118	26.528146	0.030332245	-106.05437	0.030241585	-106.20587	0.096242736	-50.561206	
7.91	0.14503956	28.076705	0.030308122	-107.54658	0.030259311	-107.64178	0.093197048	-50.892389	
8.01	0.14740599	29.721729	0.030242296	-108.92204	0.030242296	-109.03224	0.087161539	-47.8709	
8.11	0.14879392	31.442371	0.03018472	-110.56514	0.030226451	-110.56334	0.077643857	-48.327847	
8.21	0.14972032	33.13716	0.03017308	-112.03465	0.030197406	-112.04065	0.071000208	-49.706031	
8.31	0.15060064	34.860547	0.030174849	-113.38649	0.030171376	-113.43289	0.06640869	-50.520491	
8.41	0.15066592	36.638218	0.030187142	-114.83618	0.030117713	-114.86708	0.05860938	-48.110843	
8.51	0.14992314	38.507986	0.030225772	-116.39345	0.030152783	-116.45535	0.047397344	-51.756037	
8.61	0.14867474	40.309233	0.030199355	-117.79341	0.030102161	-117.79351	0.040960016	-58.990189	
8.71	0.14697485	42.341455	0.030215267	-119.35692	0.030166605	-119.24932	0.035433587	-65.087982	
8.81	0.14426105	44.442388	0.030188447	-120.87756	0.030174548	-120.93646	0.026819786	-71.158597	
8.91	0.14068512	46.439584	0.030254662	-122.41745	0.030212893	-122.47835	0.021835792	-101.40294	
9.01	0.13692451	48.285532	0.030266552	-124.00547	0.030189988	-123.96327	0.025090673	-121.87682	
9.11	0.13363951	50.63362	0.03027825	-125.57435	0.030257342	-125.60035	0.030090028	-137.60974	
9.21	0.12797452	53.122541	0.030302812	-127.2756	0.030260976	-127.2515	0.034007332	-149.60401	
9.31	0.12378771	55.491831	0.030287745	-128.87793	0.030256378	-128.90753	0.046013629	-161.59071	
9.41	0.11778213	58.829942	0.030226496	-130.55846	0.030163922	-130.80886	0.055801285	-160.10548	
9.51	0.1125414	61.683225	0.029994633	-132.2217	0.029911869	-132.2121	0.061580948	-164.20365	
9.61	0.10676333	64.865552	0.029899	-133.53625	0.029843974	-133.63275	0.072186474	-166.95887	
9.71	0.099756727	67.862724	0.029834214	-135.00871	0.029803317	-134.98961	0.083402048	-167.83249	
9.81	0.092853492	71.21004	0.029729591	-136.48598	0.029719324	-136.48708	0.092397865	-166.80939	
9.91	0.086364915	74.921634	0.029689215	-137.45205	0.029655053	-137.57725	0.098957283	-167.96609	
10.01	0.079755921	78.938076	0.029762307	-139.05175	0.029652861	-139.04665	0.10960866	-168.98036	
10.11	0.073054189	84.358519	0.029601654	-140.44983	0.029628931	-140.62273	0.12056357	-168.67339	
10.21	0.066405883	89.857252	0.029574436	-141.91026	0.029489436	-141.80326	0.12901106	-167.06193	
10.31	0.05975534	97.079787	0.029507136	-142.87586	0.029456223	-142.98816	0.13423462	-167.49231	
10.41	0.054769509	104.19608	0.029507406	-144.24232	0.029381978	-144.18442	0.14522087	-167.62264	
10.51	0.050770588	114.1537	0.029550539	-145.26627	0.029516538	-145.23217	0.15528877	-166.65763	
10.61	0.047306236	125.15328	0.029711524	-146.60742	0.029704683	-146.67852	0.16229251	-165.31345	
10.71	0.045285141	136.83234	0.02975174	-147.99843	0.029679896	-148.17283	0.16779805	-165.61645	
10.81	0.045403924	148.91443	0.02978114	-149.70835	0.029784569	-149.52225	0.17817894	-165.30282	
10.91	0.046567801	160.51437	0.029866041	-151.00644	0.029800782	-151.04274	0.1855766	-163.95734	
11.01	0.050094807	170.38562	0.029823982	-152.46266	0.029810251	-152.39466	0.19052822	-162.97911	
11.11	0.053842674	-179.8279	0.029862118	-153.859	0.029824324	-153.8905	0.19450877	-162.92416	
11.21	0.058312052	-172.94756	0.029838614	-155.26022	0.029831744	-155.27072	0.2021396	-162.62495	
11.31	0.063269605	-167.02203	0.029929874	-156.70389	0.029778642	-156.68639	0.20707056	-161.49245	
11.41	0.069205044	-162.39379	0.029915318	-158.12806	0.029798447	-158.00666	0.20968757	-160.66432	
11.51	0.07488899	-157.85091	0.029930172	-159.44167	0.029847586	-159.55767	0.21111833	-160.87329	
11.61	0.080336027	-154.74985	0.029836258	-160.96493	0.029767636	-160.97553	0.21786906	-161.04612	
11.71	0.086178411	-151.80274	0.029874588	-162.35587	0.029795585	-162.47167	0.220379	-160.20119	
11.81	0.091840142	-149.66958	0.029841742	-163.97392	0.029817702	-163.77472	0.22194327	-160.36358	
11.91	0.097679411	-147.8783	0.029839833	-165.52726	0.029754071	-165.42406	0.22412232	-160.60177	
12.01	0.10309319	-146.43146	0.029835592	-166.68112	0.029787541	-166.82412	0.22917624	-160.95245	
12.11	0.10907155	-145.26735	0.029814201	-168.40464	0.029752481	-168.27444	0.23105934	-160.34322	
12.21	0.11487439	-144.52541	0.029742686	-169.90774	0.029691367	-169.84254	0.2321474	-160.9694	
12.31	0.12066278	-144.13634	0.029713895	-171.58262	0.029693376	-171.64282	0.23553651	-161.43334	
12.41	0.12583633	-144.31713	0.029572682	-173.45978	0.029470718	-173.43488	0.24097193	-161.92753	
12.51	0.12958512	-144.43561	0.029102505	-174.73847	0.028992146	-174.92937	0.24286413	-161.35618	
12.61	0.13361362	-143.94326	0.028785716	-175.43388	0.028702983	-175.46058	0.24391416	-162.37225	
12.71	0.13997179	-142.9485	0.028829676	-176.32481	0.028806452	-176.41041	0.24937427	-162.78328	
12.81	0.14610233	-142.61596	0.028978683	-177.48177	0.02890205	-177.39507	0.25410306	-163.08179	
12.91	0.15330398	-142.44842	0.029139871	-178.84134	0.029042742	-178.86634	0.25748472	-162.75732	
13.01	0.15976926	-142.56795	0.029129271	179.68649	0.029075663	179.65629	0.25976488	-163.58429	
13.11	0.16756464	-142.92536	0.02920309	178.06155	0.029129217	178.17385	0.26584294	-164.00495	
13.21	0.17510474	-143.083	0.029171404	176.66378	0.029114365	176.65708	0.27029041	-164.16196	
13.31	0.18201249	-143.36418	0.029019687	175.02094	0.02894961	175.05004	0.27470442	-164.12291	
13.41	0.18966105	-143.76145	0.028894922	173.97565	0.028768785	173.97065	0.27824636	-164.69749	
13.51	0.19818277	-143.87271	0.028918306	172.62029	0.028891684	172.67279	0.28580145	-164.9886	
13.61	0.2065473	-144.1542	0.028897409	171.26528	0.028820991	171.29108	0.29173186	-164.84719	
13.71	0.21637021	-144.55	0.028951991	169.81238	0.028882078	169.92428	0.29659026	-164.68008	
13.81	0.22569762	-144.5083	0.028834352	168.27714	0.028870891	168.33914	0.30201747	-165.03334	
13.91	0.2353372	-144.73019	0.028827823	166.86987	0.028791338	166.89487	0.31119706	-164.81196	
14.01	0.2458564	-144.94422	0.028784285	165.44065	0.028688341	165.65875	0.31639703	-164.26063	
14.11	0.25620789	-144.79605	0.028695478	164.04972	0.028642667	163.93432	0.32301444	-163.88542	
14.21	0.2659224	-144.68894	0.028640299	162.74018	0.028525125	162.74658	0.32881916	-163.71148	
14.31	0.27692002	-144.6311	0.028511311	161.39293	0.028449012	161.40313	0.33835205	-163.05939	
14.41	0.28771862	-144.39442	0.028389711	159.92629	0.028363575	159.89819	0.3425941	-162.16608	
14.51	0.29879896	-144.09208	0.028382597	158.70658	0.028314059	158.69908	0.34931392	-161.6738	
14.61	0.30948358	-143.72155	0.028291769	157.33186	0.028249457	157.46426	0.35472135	-160.94298	
14.71	0.32035758	-143.22975	0.02819227	156.1225	0.028140386	156.0725	0.3633485	-160.08288	
14.81	0.33054221	-142.86961	0.028098745	154.56553	0.028072877	154.75493	0.36739221	-158.73029	
14.91	0.3415795	-142.19532	0.027919542	153.40615	0.027913114	153.35555	0.37238968	-158.07079	
15.01	0.35068796	-141.57809	0.027847496	152.25603	0.027754675	152.10483	0.37770861	-156.98411	
15.11	0.35976688	-140.93425	0.027667529	151.06092	0.027607074	151.08732	0.38395334	-156.01759	
15.21	0.36854436	-140.2259	0.027579867	150.29874	0.027586218	150.14204	0.3876057	-154.40069	
15.31	0.37734866	-139.4718	0.027710076	149.17873	0.027703696	149.15383	0.3908335	-153.62633	
15.41	0.38492384	-138.77093	0.027755559	147.96706	0.027710858	147.88806	0.3957028	-152.21549	
15.51	0.39201879	-137.96706	0.027777372	146.59943	0.027700726	146.46763	0.3991904	-150.9884	
15.61	0.39700379	-137.00515	0.027716392	145.0464	0.027627189	145.1214	0.40093685	-149.35495	
15.71	0.40073086	-136.02316	0.02755951	143.84592	0.027530968	143.65982	0.40138988	-148.47362	
15.81	0.40663596	-134.81386	0.027398806	142.90446	0.027345234	142.98746	0.40529543	-147.05602	
15.91	0.41228863	-133.86644	0.027514428	141.88765	0.027463791	141.94365	0.4056992	-145.57894	
16.01	0.41478489	-132.87352	0.027495368	140.49243	0.027428972	140.56053	0.404922	-144.10685	
16.11	0.41551097	-131.70967	0.027258793	138.92894	0.027227428	139.13604	0.40336552	-143.07426	
16.21	0.41720502	-130.20699	0.026896961	138.42703	0.026798051	138.37733	0.40494437	-141.67636	
16.31	0.42170826	-128.72503	0.026850153	138.2396	0.026726788	138.3218	0.40160906	-140.08357	
16.41	0.42505822	-127.53485	0.027078891	137.9079	0.026957578	137.6727	0.397807	-138.91258	
16.51	0.42673893	-126.59197	0.027371049	137.0559	0.027251565	137.2669	0.39254706	-137.85597	
16.61	0.4267819	-125.90662	0.027682573	136.38887	0.027647538	136.37227	0.38941509	-136.89659	
16.71	0.42540909	-125.17204	0.02805948	135.29506	0.027978834	135.46506	0.38389149	-135.53167	
16.81	0.42120244	-124.47239	0.028576281	134.37201	0.02859932	134.37851	0.37647034	-134.52866	
16.91	0.41707568	-123.8453	0.02916538	132.63468	0.029051438	132.72828	0.3683981	-133.75378	
17.01	0.41029683	-123.34315	0.029290782	130.84637	0.029321148	130.79017	0.36111497	-133.01929	
17.11	0.40210478	-123.07108	0.029697214	129.59504	0.029523355	129.40644	0.35127999	-132.12909	
17.21	0.39115372	-123.11526	0.030094939	128.07262	0.030043011	127.97752	0.3398761	-131.52852	
17.31	0.37738263	-123.11187	0.030578123	126.25364	0.030630968	126.34014	0.32743631	-131.2884	
17.41	0.35918109	-123.13819	0.031271536	124.2906	0.031106366	124.1326	0.31576152	-131.11794	
17.51	0.33828693	-122.91273	0.031718091	121.9497	0.031656077	121.76431	0.29958548	-131.14913	
17.61	0.31797215	-121.86883	0.032146915	119.0612	0.032084058	119.2968	0.28470457	-131.79965	
17.71	0.30199343	-120.94425	0.032565831	116.62087	0.03252836	116.57227	0.26833195	-132.6785	
17.81	0.28221737	-121.66814	0.032909803	113.02637	0.032818995	113.25437	0.25312357	-133.8093	
17.91	0.25915531	-121.31768	0.032460357	109.12794	0.032378244	109.14974	0.23191301	-134.95443	
18.01	0.24138366	-119.37668	0.03127879	106.60797	0.03122482	106.71386	0.21347935	-138.49991	
18.11	0.23276436	-119.92672	0.030544635	105.92616	0.030534084	105.94106	0.19561344	-141.31882	
18.21	0.2227668	-123.35839	0.030620736	105.20008	0.030553828	105.35488	0.17624223	-147.05763	
18.31	0.20660717	-128.40903	0.031026939	103.98967	0.030870166	104.09106	0.15803857	-152.70208	
18.41	0.18637889	-135.32612	0.031440883	102.57294	0.03148435	102.56344	0.14311486	-163.99619	
18.51	0.16603764	-143.07226	0.032254393	100.9455	0.03226182	101.027	0.13931817	-173.04082	
18.61	0.15289856	-152.73154	0.033195788	98.334801	0.033207255	98.299601	0.13392035	175.17659	
18.71	0.14768553	-163.79214	0.033889321	95.000086	0.033854224	95.052286	0.13602092	163.76072	
18.81	0.14598716	-179.61553	0.034265455	91.514683	0.034320721	91.53768	0.1453898	149.82092	
18.91	0.15552134	164.67985	0.034538057	88.052465	0.034522152	87.89477	0.16585351	141.46262	
19.01	0.16762507	151.42187	0.034513158	84.693204	0.03444567	84.742199	0.18274502	133.64931	
19.11	0.1804708	140.22379	0.034400845	81.461245	0.034428579	81.620439	0.20686124	128.19279	
19.21	0.20166998	134.13543	0.03456577	78.284652	0.034367365	78.258752	0.22902245	123.4316	
19.31	0.22830321	130.48922	0.034561816	74.705218	0.034426792	74.725718	0.25750185	119.88552	
19.41	0.25982994	127.11309	0.034146919	71.239923	0.034115483	71.441923	0.28200682	117.26511	
19.51	0.29237759	123.45062	0.033732159	67.720641	0.033693346	67.778641	0.30917354	115.20037	
19.61	0.32495738	120.4447	0.033181511	64.537856	0.033116629	64.659356	0.33431394	114.06448	
19.71	0.35431172	117.85894	0.03235591	61.704327	0.032218377	61.66563	0.35707793	113.29855	
19.81	0.38080531	115.56421	0.031552873	59.753535	0.031498433	59.695233	0.37928251	112.16855	
19.91	0.4018021	114.55771	0.031218351	57.44969	0.031117878	57.471586	0.4041232	111.62678	
20.01	0.42212649	114.42782	0.031003925	55.542445	0.030649026	55.904545	0.42633934	111.5341	
