!
! Hittite Microwave Corporation
! 2 Elizabeth Drive
! Chelmsford, MA 01824
! http://www.hittite.com
! Tel: 978-250-3343
! Fax: 978-250-3373
! 
! Device:      HMC424LP3
! Description: 0.5 dB GaAs MMIC 6-Bit Digital Attenuator
! Frequency:    DC -  13.00 GHz
! Package:     LP3  - 3x3 mm Quad Flatpack No-Lead (QFN) Plastic Package: 16 pin
! Ports:       2 RF, 7 DC
!              Pad  1  = Ground
!              Pad  2  = RF IN   =  Port 1
!              Pad  3  = Ground
!              Pad  4  = V6
!              Pad  5  = V5
!              Pad  6  = V4
!              Pad  7  = V3
!              Pad  8  = V2
!              Pad  9  = V1
!              Pad 10  = Ground
!              Pad 11  = RF OUT  = Port 2
!              Pad 12  = Ground
!              Pad 15  = VEE
!
! Control:     -5 Volt control voltage
! State:        56 
! Attenuation:  28.0 dB
! Voltages:    Vdd = -5.00 Volts  Idd =  -2.387 mA
!              V1  = 0.00 Volts  I1  =  29.0 uA
!              V2  = 0.00 Volts  I2  =  29.0 uA
!              V3  = 0.00 Volts  I3  =  29.0 uA
!              V4  = -5.00 Volts  I4  =  -1.0 uA
!              V5  = -5.00 Volts  I5  =  -1.0 uA
!              V6  = -5.00 Volts  I6  =  -1.0 uA
!
! Data:    The device was measured on evaluation board 105354-1. 
!          Data was collected using a calibrated network analyzer.
!          The evaluation circuit board was modeled and simulated.  This was use
!          to removed the evaluation board circuit from the measured data.
!          The reference plane is the edge of the package pin.
!
! Misc:    Lot xxxx, Unit 1
!          Application 20120001, Data collected in Application 20090083
!
! Date Measured:  2009-09-15
! Date:           2012-05-14  MJV
! Note: 
!   Hittite supplies this data as a sample of measured data at the package pin
!   for this product.  Your particular data for this product may vary.
!   Data was taken at 25 degrees C.
!   Hittite reserves the right to change this data at anytime.
!
# GHz S MA R 50

0.01	0.078455663	3.2804911	0.029451749	2.288735	0.030395626	-0.88836495	0.042545959	6.1003366	
0.11	0.075520732	-2.996008	0.03034863	-2.1196604	0.030271858	-1.8260604	0.039248719	0.82513258	
0.21	0.076150937	-5.8124329	0.030314242	-3.2351461	0.030251486	-3.3535461	0.038679487	-7.7481348	
0.31	0.077813581	-8.1244521	0.030309988	-4.5752631	0.03025769	-4.5901631	0.043882626	-10.308004	
0.41	0.078648399	-10.728389	0.030286378	-5.882438	0.030244565	-6.090038	0.04458356	-10.990556	
0.51	0.080549906	-13.274395	0.030251292	-7.2696357	0.030143517	-7.5161357	0.04385353	-13.119774	
0.61	0.081866494	-15.869712	0.030211602	-8.6733337	0.030173365	-8.6252337	0.045206229	-19.720522	
0.71	0.084703683	-18.237713	0.030184681	-10.001481	0.030125662	-10.009581	0.051596563	-21.213179	
0.81	0.086711148	-20.280044	0.030075433	-11.246121	0.030092751	-11.157221	0.051407146	-19.989495	
0.91	0.089761734	-22.119588	0.030113939	-12.646844	0.030110472	-12.602744	0.052753006	-24.808319	
1.01	0.091840855	-23.565824	0.030138126	-13.877997	0.030075734	-13.838597	0.056185584	-28.114826	
1.11	0.094471465	-25.343934	0.030074688	-15.148889	0.029991703	-15.266289	0.062685806	-27.520316	
1.21	0.096642627	-26.603133	0.029999584	-16.506702	0.029965066	-16.561302	0.061460122	-25.882737	
1.31	0.099124191	-28.14195	0.029953792	-17.781825	0.029988298	-17.871525	0.063816824	-30.531189	
1.41	0.10146615	-29.038124	0.029983432	-19.121672	0.029893815	-19.109972	0.068481809	-31.006866	
1.51	0.10333314	-30.370864	0.029851297	-20.391413	0.029854734	-20.325113	0.072470358	-29.60256	
1.61	0.1058673	-31.241149	0.02989293	-21.692995	0.029824178	-21.747895	0.070673557	-28.480868	
1.71	0.10737196	-32.32084	0.029789111	-22.986875	0.029850908	-22.905975	0.072434101	-32.846839	
1.81	0.10917027	-33.293051	0.029907735	-24.215319	0.029801185	-24.274919	0.076874795	-32.496483	
1.91	0.11007061	-34.114231	0.029790648	-25.391571	0.029739246	-25.686471	0.078005147	-31.880888	
2.01	0.11122676	-35.071173	0.029678632	-26.928112	0.029729929	-27.023112	0.075969492	-31.994953	
2.11	0.1118066	-36.230489	0.02971971	-28.154896	0.029671846	-28.157096	0.077781956	-36.420808	
2.21	0.11264636	-37.542648	0.029714979	-29.330096	0.029725244	-29.458196	0.082281072	-35.885171	
2.31	0.11324091	-38.744189	0.029695423	-30.822635	0.029616895	-30.758935	0.08159171	-35.747079	
2.41	0.11354466	-40.132555	0.029745213	-31.960258	0.029577883	-31.899158	0.079779251	-37.550829	
2.51	0.11399382	-41.54213	0.029670434	-33.252249	0.029557922	-33.233549	0.082486291	-41.700454	
2.61	0.11384437	-43.069605	0.029628324	-34.551265	0.029522769	-34.548965	0.086415608	-40.925677	
2.71	0.1144894	-44.745243	0.029561487	-35.924864	0.029551278	-35.888764	0.084067083	-41.613281	
2.81	0.11388233	-46.45603	0.029515183	-37.028774	0.029477828	-37.039174	0.083561398	-44.423846	
2.91	0.11466224	-48.462647	0.029439931	-38.348989	0.029490816	-38.423889	0.086670611	-47.849333	
3.01	0.11460208	-50.410101	0.029475377	-39.757705	0.029431295	-39.721305	0.090055334	-47.079101	
3.11	0.11514328	-52.521131	0.029428723	-41.012844	0.029405016	-41.084744	0.086591463	-48.321321	
3.21	0.11504308	-54.494816	0.029343677	-42.354411	0.029350434	-42.345011	0.087178393	-52.000778	
3.31	0.11580096	-56.874765	0.029320251	-43.734404	0.02937431	-43.735204	0.090427094	-54.460591	
3.41	0.11636554	-59.205678	0.029278914	-44.840336	0.029251959	-44.988036	0.092583012	-54.192623	
3.51	0.117319	-61.570686	0.029246694	-46.169006	0.02921977	-46.220406	0.089148578	-56.536318	
3.61	0.11844847	-64.123188	0.029329937	-47.56001	0.029252375	-47.42591	0.091624703	-60.926871	
3.71	0.12028566	-66.499447	0.029114209	-48.766441	0.029127619	-48.809341	0.095468401	-62.653742	
3.81	0.12210248	-68.762001	0.029130299	-50.056166	0.02919409	-50.121366	0.096491688	-62.818645	
3.91	0.12428438	-71.078849	0.029074872	-51.305843	0.029061485	-51.347643	0.094184277	-66.467686	
4.01	0.13285606	-72.084668	0.029156468	-52.557617	0.02899245	-52.603617	0.1064725	-68.253612	
4.11	0.13522511	-73.774266	0.029069542	-53.883201	0.029066196	-53.875501	0.11073866	-68.555598	
4.21	0.13815387	-75.373595	0.029080518	-55.263286	0.028903613	-55.150186	0.11174757	-68.920484	
4.31	0.14167055	-76.713849	0.029065851	-56.472835	0.028932305	-56.502635	0.11176602	-71.680553	
4.41	0.14439206	-77.765662	0.028995509	-57.686616	0.028898861	-57.850016	0.11880333	-73.397011	
4.51	0.14717595	-78.806413	0.028875323	-59.13322	0.028845419	-58.97022	0.12188121	-72.480045	
4.61	0.15017443	-79.803239	0.028824298	-60.475635	0.028814344	-60.398735	0.12235615	-72.635951	
4.71	0.15356801	-80.551702	0.028803918	-61.574124	0.028697995	-61.641824	0.1229342	-74.385358	
4.81	0.15607502	-81.252102	0.028807723	-62.853187	0.028695179	-62.866287	0.12996266	-75.174302	
4.91	0.15920039	-81.739776	0.028653619	-64.318345	0.028577845	-64.246345	0.13153129	-73.480279	
5.01	0.16161668	-82.209212	0.028608747	-65.420896	0.028579119	-65.588596	0.13077426	-73.947237	
5.11	0.1647464	-82.363532	0.0285564	-66.672757	0.028599172	-66.789757	0.13180792	-75.033749	
5.21	0.16665439	-82.614541	0.028566213	-67.97083	0.028510358	-68.10073	0.13769893	-75.472274	
5.31	0.16921794	-82.691628	0.028467733	-69.146386	0.02847101	-69.249886	0.13860443	-73.326325	
5.41	0.17104525	-82.598686	0.02846848	-70.581323	0.028386658	-70.532123	0.13702625	-74.085778	
5.51	0.17297906	-82.480414	0.028420063	-71.904058	0.028312292	-71.824858	0.1396676	-74.7122	
5.61	0.17447141	-82.077898	0.028290185	-73.15767	0.02827716	-73.07307	0.14431975	-74.542552	
5.71	0.17522044	-81.850257	0.02825805	-74.388193	0.028232036	-74.292993	0.14433701	-72.257193	
5.81	0.17628545	-81.272304	0.028268281	-75.547621	0.028148121	-75.483921	0.14183746	-72.837651	
5.91	0.17623846	-80.918228	0.028191969	-76.775366	0.028120654	-76.887566	0.14571463	-72.932122	
6.01	0.17640063	-80.321625	0.028131425	-78.00767	0.028092587	-78.21967	0.14921058	-71.657568	
6.11	0.17617485	-79.709857	0.028045949	-79.305952	0.027955685	-79.300452	0.14813023	-69.186028	
6.21	0.17523672	-78.759094	0.028029379	-80.470929	0.027981015	-80.659129	0.14458547	-69.436874	
6.31	0.17394724	-78.221006	0.028033386	-81.764496	0.027956034	-81.805096	0.14790384	-68.849201	
6.41	0.1722907	-77.125222	0.027985582	-82.983381	0.027918002	-82.960181	0.14870561	-66.909586	
6.51	0.16972066	-76.224329	0.02787684	-84.32715	0.027908953	-84.34535	0.14638279	-64.344451	
6.61	0.1664286	-75.255762	0.027967993	-85.602081	0.027903668	-85.504781	0.14132758	-64.040988	
6.71	0.16309877	-74.451429	0.027988468	-86.920852	0.027875914	-86.838252	0.14287197	-63.338069	
6.81	0.15958468	-73.459968	0.027976669	-88.125465	0.027934828	-88.251965	0.14104486	-60.931214	
6.91	0.15489758	-72.487748	0.027891339	-89.45929	0.02782719	-89.52209	0.13706065	-58.929138	
7.01	0.15001927	-71.734684	0.027900201	-90.858802	0.027861682	-90.809602	0.13078935	-58.328641	
7.11	0.14477085	-70.846166	0.02790402	-92.17562	0.027839842	-92.25482	0.13129327	-58.151493	
7.21	0.13888794	-70.001663	0.027852235	-93.529303	0.027829798	-93.395603	0.12758896	-55.156157	
7.31	0.13234832	-69.204296	0.027907689	-94.740757	0.027833888	-94.828957	0.12115599	-54.151229	
7.41	0.12579346	-68.610861	0.027976697	-96.044772	0.02791878	-96.118472	0.11555644	-54.057523	
7.51	0.11847029	-67.910474	0.027959006	-97.38403	0.027949351	-97.34603	0.11441447	-54.115258	
7.61	0.11102207	-67.767119	0.028053141	-98.837399	0.027946762	-98.715899	0.11015155	-51.073773	
7.71	0.10319075	-67.483534	0.027994972	-100.25164	0.027930586	-100.24794	0.10225624	-50.492031	
7.81	0.095036954	-67.910929	0.02802591	-101.80624	0.027977553	-101.83134	0.096357042	-50.698953	
7.91	0.086756212	-68.268329	0.028030732	-103.29948	0.027985588	-103.18958	0.093303486	-50.966104	
8.01	0.077963924	-69.181086	0.02800561	-104.81431	0.028015284	-104.68251	0.087269126	-48.054595	
8.11	0.069084936	-71.222996	0.028023882	-106.23365	0.027949773	-106.28425	0.077778227	-48.445211	
8.21	0.060471019	-74.263288	0.028047805	-107.66848	0.027973634	-107.82948	0.071160416	-49.9402	
8.31	0.051787988	-78.627133	0.028071644	-109.06435	0.027958756	-109.12865	0.066451472	-50.669822	
8.41	0.043651094	-85.911575	0.028031335	-110.61983	0.027957207	-110.64203	0.05858926	-48.235221	
8.51	0.036821905	-97.061572	0.028011005	-112.26563	0.02801423	-112.16953	0.047567832	-52.014955	
8.61	0.032618333	-112.39799	0.028065902	-113.73969	0.027956256	-113.81149	0.041033303	-59.426472	
8.71	0.031529207	-132.30389	0.028003005	-115.15138	0.027951469	-115.39038	0.035589337	-65.36985	
8.81	0.035096453	-150.54302	0.027986263	-116.94111	0.027944408	-116.89311	0.026963135	-71.592252	
8.91	0.042347142	-163.25369	0.028052485	-118.50896	0.028042797	-118.62206	0.022065465	-101.73259	
9.01	0.050364567	-171.01098	0.028046362	-120.11076	0.028043133	-120.18786	0.025429138	-121.78759	
9.11	0.059925108	-177.95104	0.028047704	-121.72732	0.027973533	-121.81332	0.030249436	-137.48728	
9.21	0.070974674	178.96498	0.028042805	-123.25865	0.02795577	-123.44195	0.034194834	-149.36946	
9.31	0.081137768	175.86557	0.028070301	-125.16346	0.027963857	-125.05826	0.046206272	-161.20289	
9.41	0.09323164	174.31137	0.027794191	-126.84764	0.027810195	-126.82904	0.05584932	-159.89186	
9.51	0.10386617	173.3094	0.02763836	-128.21829	0.027562098	-128.33839	0.061730934	-164.08553	
9.61	0.11481068	172.87623	0.027514343	-129.62066	0.027517511	-129.52556	0.072414184	-166.9023	
9.71	0.12546084	173.17584	0.027514864	-131.06923	0.027407371	-131.03783	0.083479959	-167.68402	
9.81	0.13548498	173.42518	0.027255344	-132.5238	0.02722085	-132.471	0.092543185	-166.65971	
9.91	0.14526295	173.6758	0.027252818	-133.42355	0.02716198	-133.64745	0.099076177	-167.86502	
10.01	0.15460581	174.04048	0.027275213	-134.9851	0.027168656	-134.9211	0.10988741	-168.91547	
10.11	0.16428689	174.54115	0.027151183	-136.45538	0.027057567	-136.51708	0.12085625	-168.55944	
10.21	0.17290656	175.14597	0.026976261	-137.61929	0.026923515	-137.62329	0.12915852	-167.00851	
10.31	0.181819	176.02603	0.026836341	-138.74502	0.026805463	-138.84462	0.13452367	-167.45037	
10.41	0.18889789	176.43891	0.026821929	-139.74427	0.026800322	-139.83817	0.14545706	-167.52303	
10.51	0.19728088	177.04158	0.026877963	-140.87204	0.026794543	-140.95594	0.15558673	-166.63644	
10.61	0.20461949	177.84177	0.027027931	-142.21464	0.026947148	-142.18124	0.16266974	-165.28483	
10.71	0.21113491	178.55234	0.02700907	-143.57708	0.026981098	-143.52008	0.16811606	-165.5773	
10.81	0.21756539	179.18045	0.026994539	-144.83726	0.027025635	-144.88886	0.17844093	-165.25491	
10.91	0.22331178	179.85384	0.027019272	-146.19919	0.027003722	-146.18139	0.18584761	-163.95151	
11.01	0.22865138	-179.62198	0.027029714	-147.56356	0.026927216	-147.42636	0.19060948	-162.92496	
11.11	0.23351826	-178.86504	0.02703897	-148.80237	0.026948844	-148.77037	0.19471478	-162.88597	
11.21	0.23753713	-178.40866	0.026968717	-150.01485	0.026900496	-150.07575	0.20232372	-162.6136	
11.31	0.24110565	-178.02229	0.026964045	-151.34907	0.026855611	-151.36077	0.20724171	-161.47425	
11.41	0.24524721	-177.62942	0.027071105	-152.67245	0.026918817	-152.62535	0.20987366	-160.66884	
11.51	0.24807821	-177.20676	0.026983134	-154.01097	0.026896291	-154.06017	0.21142797	-160.85781	
11.61	0.25077144	-177.00224	0.026954672	-155.4874	0.026837005	-155.4479	0.21800792	-161.01575	
11.71	0.25337337	-176.78383	0.026847253	-156.71822	0.026797844	-156.71252	0.22061632	-160.15999	
11.81	0.25558868	-176.64319	0.026880851	-157.99109	0.026887041	-158.08679	0.22224322	-160.33199	
11.91	0.2577133	-176.58434	0.026859846	-159.44225	0.026785732	-159.42095	0.22431075	-160.56273	
12.01	0.25992855	-176.54692	0.026741036	-160.67915	0.026762595	-160.77915	0.22940264	-160.9285	
12.11	0.26206957	-176.58844	0.026707172	-162.31123	0.026676442	-162.19063	0.23131789	-160.31854	
12.21	0.26411331	-176.6835	0.026709541	-163.47387	0.02661132	-163.49407	0.23236414	-160.95956	
12.31	0.26628198	-176.87543	0.026661931	-165.14829	0.026570003	-165.04599	0.23584949	-161.4082	
12.41	0.26838632	-177.26795	0.026353943	-166.77845	0.026411654	-166.74295	0.24134371	-161.89023	
12.51	0.26971496	-177.70039	0.026035332	-167.63608	0.025972462	-167.76508	0.24315386	-161.35382	
12.61	0.27085062	-177.94866	0.025887183	-168.13838	0.025836566	-168.36118	0.24427288	-162.3535	
12.71	0.27276521	-177.80833	0.026011172	-169.06278	0.025918503	-169.07628	0.24967747	-162.79279	
12.81	0.27472242	-177.9132	0.026141208	-170.23561	0.026060075	-170.23341	0.25437876	-163.0775	
12.91	0.27784272	-177.96419	0.026210483	-171.58748	0.026159234	-171.55908	0.25767601	-162.75963	
13.01	0.28040828	-178.11807	0.026310026	-172.81616	0.026252537	-172.88426	0.26001721	-163.59999	
13.11	0.28412768	-178.30597	0.02624334	-174.34076	0.026201074	-174.36306	0.26607402	-164.00101	
13.21	0.28718682	-178.32184	0.02621266	-175.62465	0.026197575	-175.79755	0.27053444	-164.15854	
13.31	0.29009302	-178.49279	0.026141573	-177.02814	0.026087455	-177.04294	0.27502008	-164.13197	
13.41	0.29366304	-178.56311	0.026075503	-178.24772	0.025907929	-178.13682	0.27852095	-164.70837	
13.51	0.29744741	-178.44889	0.026115193	-179.37318	0.026010173	-179.18528	0.28610792	-165.00113	
13.61	0.30135091	-178.40837	0.026067723	179.49116	0.026034731	179.52746	0.29194947	-164.85737	
13.71	0.30624844	-178.24891	0.026081016	178.15484	0.026048007	178.27684	0.29695055	-164.67718	
13.81	0.31027965	-177.8748	0.026091366	176.93354	0.026013382	176.84424	0.30214124	-165.05109	
13.91	0.31446521	-177.62473	0.026053944	175.38482	0.025982054	175.41292	0.31134311	-164.78479	
14.01	0.31958442	-177.26718	0.02603859	174.33395	0.025960764	174.36875	0.31662615	-164.27137	
14.11	0.32370535	-176.65794	0.025969984	173.03334	0.025925174	173.05384	0.32328103	-163.92869	
14.21	0.32755122	-176.13765	0.025957213	171.80623	0.025826054	171.91273	0.32917234	-163.73083	
14.31	0.33248719	-175.48748	0.02588639	170.69746	0.025835775	170.78536	0.33857006	-163.0773	
14.41	0.33668727	-174.70782	0.025870215	169.47536	0.025816659	169.40996	0.34288497	-162.1898	
14.51	0.34097489	-173.83376	0.025857922	168.29229	0.025745043	168.26089	0.34957267	-161.68329	
14.61	0.34502034	-172.87885	0.025833307	167.02906	0.025782796	167.03326	0.35493072	-160.94035	
14.71	0.34858795	-171.84795	0.025854922	165.84248	0.025733167	165.77528	0.36358844	-160.10208	
14.81	0.35233759	-170.94099	0.025701081	164.62861	0.025698122	164.62321	0.36749262	-158.73194	
14.91	0.35560903	-169.62614	0.025652657	163.42554	0.025614292	163.51584	0.3725935	-158.08681	
15.01	0.35771297	-168.51183	0.025633707	162.31027	0.025604212	162.22697	0.37790411	-157.00761	
15.11	0.35970616	-167.36002	0.025576094	161.26437	0.025490844	161.46297	0.38416876	-156.03615	
15.21	0.36160554	-166.12448	0.025624801	160.42023	0.025518815	160.46933	0.38762574	-154.42961	
15.31	0.36303939	-164.80465	0.025751513	159.47041	0.02571004	159.40161	0.39104617	-153.64121	
15.41	0.36396199	-163.56417	0.025839625	158.13366	0.02579207	158.30046	0.39601788	-152.24368	
15.51	0.3643039	-162.24797	0.025896672	156.79483	0.025804411	156.91263	0.39933186	-151.01186	
15.61	0.362615	-160.83722	0.025850369	155.44923	0.025811708	155.39453	0.40120997	-149.37383	
15.71	0.36000887	-159.52122	0.025669207	154.33169	0.025722457	154.44649	0.40172099	-148.48129	
15.81	0.35867801	-157.91108	0.025744593	153.51623	0.025691297	153.61993	0.40570282	-147.09192	
15.91	0.35730881	-156.40866	0.025901742	152.55737	0.025812435	152.51517	0.40583906	-145.62555	
16.01	0.35317983	-155.03888	0.025892815	151.14154	0.025886853	150.94104	0.40520231	-144.13345	
16.11	0.34772461	-153.56173	0.025818051	149.73241	0.025714226	149.97381	0.40342377	-143.10555	
16.21	0.34220679	-151.72404	0.02552115	149.18169	0.025544666	149.35999	0.40521893	-141.69433	
16.31	0.33881876	-149.71659	0.025767327	149.07607	0.025687354	148.84647	0.40196491	-140.10989	
16.41	0.33464296	-147.9589	0.026055129	148.16437	0.025953338	148.27707	0.39801553	-138.94305	
16.51	0.32909096	-146.5577	0.026435472	147.3928	0.026395936	147.2763	0.39275177	-137.88051	
16.61	0.3230674	-145.43492	0.026788576	146.32447	0.026686992	146.33567	0.38974775	-136.91033	
16.71	0.31569073	-144.21817	0.027130954	144.99627	0.027062322	145.15387	0.38410743	-135.58633	
16.81	0.30575885	-143.18671	0.02756491	143.59494	0.027609376	143.61414	0.37671019	-134.58332	
16.91	0.29594635	-142.11752	0.02799617	141.69287	0.027960737	141.70237	0.36863817	-133.82691	
17.01	0.28354347	-141.33078	0.028297978	139.83415	0.028161475	140.14725	0.36142086	-133.06052	
17.11	0.27058604	-140.81194	0.028454807	138.5421	0.028415522	138.3607	0.3513614	-132.1674	
17.21	0.25534435	-140.75596	0.028879504	136.85704	0.028836314	136.72506	0.34020906	-131.57572	
17.31	0.23818846	-140.74216	0.029217052	134.97786	0.029186793	134.95867	0.32768649	-131.34491	
17.41	0.21667599	-141.12207	0.029589102	132.78012	0.029599321	132.94942	0.31602562	-131.19448	
17.51	0.19326845	-141.16802	0.029978175	130.5834	0.029898896	130.57079	0.29988575	-131.22655	
17.61	0.16900126	-140.2062	0.030291754	128.23998	0.030197739	128.25208	0.2850004	-131.90735	
17.71	0.14784052	-138.91196	0.0306362	125.64611	0.030625621	125.65021	0.26847946	-132.75824	
17.81	0.12546771	-140.69754	0.030741572	122.18974	0.030762815	122.25704	0.2532525	-133.90385	
17.91	0.10080163	-140.9239	0.030040024	118.94949	0.030071166	118.81499	0.23236793	-135.08125	
18.01	0.078341316	-137.56633	0.029247998	117.36775	0.029167297	117.35105	0.21360438	-138.70436	
18.11	0.065068554	-138.46201	0.028962116	116.68662	0.028742888	116.74511	0.1956943	-141.53555	
18.21	0.052841119	-149.08318	0.0293097	115.57708	0.029185113	115.65868	0.17664697	-147.30863	
18.31	0.041018635	-172.02538	0.029646944	114.08449	0.029480168	114.12529	0.15840584	-153.03501	
18.41	0.040238436	149.3775	0.030005907	112.56051	0.029985187	112.27361	0.14345598	-164.29262	
18.51	0.052626163	119.9267	0.030721111	110.56992	0.030802567	110.68962	0.13954209	-173.21911	
18.61	0.072792678	106.66957	0.031475093	107.77536	0.031475093	107.78156	0.13447128	174.83551	
18.71	0.09413714	100.93643	0.03196564	104.63489	0.031884778	104.59679	0.13654842	163.49875	
18.81	0.12414235	95.812809	0.03212464	101.11435	0.032043376	101.08505	0.14605315	149.66012	
18.91	0.1547607	93.555032	0.032124209	97.901995	0.032098328	97.950487	0.16650385	141.27675	
19.01	0.18263982	90.801764	0.031895301	95.116556	0.031891623	95.067651	0.18366136	133.46572	
19.11	0.20765525	87.909476	0.031936558	92.20257	0.031914497	92.337964	0.20737738	128.0464	
19.21	0.22931949	87.766071	0.032071081	89.29338	0.031923728	89.46018	0.22995001	123.33712	
19.31	0.24971075	88.823356	0.031970985	86.19723	0.032029932	86.05863	0.2584036	119.85531	
19.41	0.27388059	90.008375	0.03179047	82.968133	0.031710052	82.977633	0.28258343	117.185	
19.51	0.29908313	90.565132	0.031298683	79.885652	0.031323917	79.753452	0.30994983	115.09563	
19.61	0.32408731	91.150649	0.030883772	76.991667	0.030802101	77.106568	0.33510958	113.99133	
19.71	0.34736893	91.513644	0.030152961	74.585021	0.030170321	74.52962	0.35790818	113.19851	
19.81	0.36878858	91.787127	0.029696025	73.08267	0.029545978	72.963079	0.37990653	112.02958	
19.91	0.38442228	92.549859	0.029430312	71.078931	0.029308592	71.063734	0.40476913	111.51363	
20.01	0.3979724	93.818292	0.029197131	69.10144	0.029379214	69.98584	0.42718334	111.43882	
