!
! Hittite Microwave Corporation
! 2 Elizabeth Drive
! Chelmsford, MA 01824
! http://www.hittite.com
! Tel: 978-250-3343
! Fax: 978-250-3373
! 
! Device:      HMC424LP3
! Description: 0.5 dB GaAs MMIC 6-Bit Digital Attenuator
! Frequency:    DC -  13.00 GHz
! Package:     LP3  - 3x3 mm Quad Flatpack No-Lead (QFN) Plastic Package: 16 pin
! Ports:       2 RF, 7 DC
!              Pad  1  = Ground
!              Pad  2  = RF IN   =  Port 1
!              Pad  3  = Ground
!              Pad  4  = V6
!              Pad  5  = V5
!              Pad  6  = V4
!              Pad  7  = V3
!              Pad  8  = V2
!              Pad  9  = V1
!              Pad 10  = Ground
!              Pad 11  = RF OUT  = Port 2
!              Pad 12  = Ground
!              Pad 15  = VEE
!
! Control:     -5 Volt control voltage
! State:        51 
! Attenuation:  25.5 dB
! Voltages:    Vdd = -5.00 Volts  Idd =  -2.514 mA
!              V1  = -5.00 Volts  I1  =  -1.0 uA
!              V2  = -5.00 Volts  I2  =  -1.0 uA
!              V3  = 0.00 Volts  I3  =  29.0 uA
!              V4  = 0.00 Volts  I4  =  29.0 uA
!              V5  = -5.00 Volts  I5  =  -1.0 uA
!              V6  = -5.00 Volts  I6  =  -1.0 uA
!
! Data:    The device was measured on evaluation board 105354-1. 
!          Data was collected using a calibrated network analyzer.
!          The evaluation circuit board was modeled and simulated.  This was use
!          to removed the evaluation board circuit from the measured data.
!          The reference plane is the edge of the package pin.
!
! Misc:    Lot xxxx, Unit 1
!          Application 20120001, Data collected in Application 20090083
!
! Date Measured:  2009-09-15
! Date:           2012-05-14  MJV
! Note: 
!   Hittite supplies this data as a sample of measured data at the package pin
!   for this product.  Your particular data for this product may vary.
!   Data was taken at 25 degrees C.
!   Hittite reserves the right to change this data at anytime.
!
# GHz S MA R 50

0.01	0.018003643	156.27914	0.040965088	-2.0283681	0.04073464	-2.0533681	0.042506505	8.2222038	
0.11	0.019740063	-177.98976	0.041037264	-1.9634511	0.041060894	-2.1921511	0.039378031	0.78404595	
0.21	0.0189473	-174.13641	0.040963743	-3.2763817	0.04100621	-3.5160817	0.038590492	-7.8173722	
0.31	0.017530909	-170.91073	0.040884147	-4.8409957	0.040747873	-4.7739957	0.043845409	-10.187222	
0.41	0.017147318	-166.80608	0.040825968	-6.1566412	0.040778992	-6.3106412	0.044561649	-10.994855	
0.51	0.016022796	-160.70539	0.040673071	-7.6314566	0.040649665	-7.6132566	0.043688695	-13.146723	
0.61	0.016004002	-154.26665	0.040659656	-9.048609	0.040640935	-8.991109	0.045154455	-19.733025	
0.71	0.014986932	-144.61758	0.040663641	-10.333116	0.040602826	-10.361816	0.051513295	-21.20501	
0.81	0.01453808	-137.37476	0.040584805	-11.791005	0.040659634	-11.752905	0.0513768	-20.003985	
0.91	0.014240878	-126.43824	0.040583773	-13.204382	0.040546411	-13.057882	0.052672409	-24.889525	
1.01	0.013820936	-119.01123	0.040554131	-14.47473	0.040596173	-14.55553	0.056182731	-28.190339	
1.11	0.014484001	-109.76201	0.040481316	-15.800152	0.040490638	-15.859052	0.062685256	-27.500966	
1.21	0.014488782	-102.27504	0.040443986	-17.186279	0.040416058	-17.249779	0.061359833	-25.955435	
1.31	0.015453631	-94.428373	0.040478459	-18.560075	0.040366767	-18.569375	0.063812902	-30.556002	
1.41	0.015806766	-87.262029	0.040409736	-19.864518	0.040409736	-19.988118	0.068467618	-31.004818	
1.51	0.016781993	-82.729223	0.040368918	-21.318881	0.040341041	-21.221181	0.072463688	-29.613506	
1.61	0.017683565	-75.783283	0.040353364	-22.656234	0.040251284	-22.657834	0.070671167	-28.540848	
1.71	0.018403215	-72.419919	0.04029421	-23.921004	0.040220054	-24.038204	0.072405076	-32.950653	
1.81	0.019302797	-68.245114	0.040284603	-25.295189	0.040275328	-25.472889	0.076801521	-32.451933	
1.91	0.019465836	-66.131943	0.040323145	-26.680269	0.040184114	-26.679769	0.078000813	-31.844684	
2.01	0.019974154	-63.641881	0.040200811	-28.022151	0.040140689	-28.088051	0.075784461	-32.026872	
2.11	0.020271725	-62.887382	0.040123239	-29.26364	0.040100149	-29.34374	0.077788427	-36.450853	
2.21	0.02084311	-62.788835	0.040145404	-30.72815	0.040043851	-30.76805	0.082346641	-35.978281	
2.31	0.02130645	-62.55014	0.040124168	-32.071719	0.039995031	-31.945319	0.081519104	-35.766304	
2.41	0.021608691	-63.827787	0.040117773	-33.349959	0.039965644	-33.277959	0.079730158	-37.510904	
2.51	0.021845902	-64.944088	0.040104855	-34.639662	0.039952776	-34.765062	0.082309441	-41.730184	
2.61	0.021769894	-67.135594	0.039969682	-36.028655	0.039932886	-36.209155	0.086288414	-40.940964	
2.71	0.022422593	-69.162661	0.039985272	-37.462553	0.039985272	-37.465253	0.084031744	-41.67952	
2.81	0.022099862	-73.048034	0.039908941	-38.702355	0.03989516	-38.816655	0.083484999	-44.498905	
2.91	0.023241424	-76.036247	0.039917315	-40.109492	0.03991272	-40.153892	0.086643006	-47.858303	
3.01	0.023586214	-80.077986	0.039859949	-41.416143	0.039791173	-41.435443	0.08999347	-47.066059	
3.11	0.024705985	-83.907568	0.039829392	-42.842193	0.039783563	-42.752793	0.086505278	-48.352059	
3.21	0.025264566	-87.502155	0.039669151	-44.128307	0.039751443	-44.126807	0.08717138	-52.068375	
3.31	0.026758832	-91.857665	0.039766706	-45.484757	0.039730096	-45.499457	0.090330729	-54.558081	
3.41	0.028308447	-95.842603	0.039707445	-46.936131	0.039689164	-46.798731	0.092530428	-54.157605	
3.51	0.03030841	-99.305348	0.039706783	-48.153345	0.039702212	-48.166845	0.089096832	-56.517285	
3.61	0.032365514	-102.92685	0.03960739	-49.606651	0.039598271	-49.573351	0.091631908	-60.984037	
3.71	0.034995059	-105.28388	0.03961442	-50.868762	0.039573394	-50.889462	0.095406259	-62.690597	
3.81	0.037652928	-106.99454	0.039616849	-52.259316	0.039498439	-52.307816	0.096446482	-62.857824	
3.91	0.040456101	-108.98638	0.039554725	-53.520631	0.039391124	-53.471631	0.09413114	-66.442024	
4.01	0.046965425	-103.26436	0.039551981	-55.009134	0.039438305	-54.865034	0.10646136	-68.286931	
4.11	0.049265169	-103.81642	0.039493738	-56.231669	0.039357567	-56.231669	0.1106888	-68.571829	
4.21	0.051977535	-104.26127	0.039373707	-57.572924	0.039423602	-57.547124	0.11175097	-68.968392	
4.31	0.054848369	-103.73505	0.039432534	-58.897606	0.03929205	-58.980306	0.11173871	-71.675186	
4.41	0.056911522	-103.28073	0.03938448	-60.267374	0.039307472	-60.364374	0.1187738	-73.392437	
4.51	0.05898772	-102.67426	0.039255074	-61.75302	0.039200878	-61.72552	0.12179787	-72.467778	
4.61	0.061237155	-102.16341	0.039192728	-62.900635	0.039165664	-62.991335	0.12235352	-72.67127	
4.71	0.063578865	-100.93681	0.03922188	-64.361904	0.039091146	-64.325104	0.12278473	-74.371147	
4.81	0.065290312	-100.03573	0.039139333	-65.662089	0.039107803	-65.673889	0.1298695	-75.218242	
4.91	0.06746922	-98.658855	0.03903088	-67.068717	0.038972507	-67.061617	0.1314893	-73.484982	
5.01	0.068969144	-97.478048	0.038949334	-68.276076	0.03892692	-68.276676	0.13067264	-73.932937	
5.11	0.070918963	-95.453955	0.038978085	-69.621115	0.038883961	-69.625215	0.13172145	-75.02825	
5.21	0.072127984	-93.987685	0.038915762	-71.052703	0.038915762	-70.999803	0.13758931	-75.475214	
5.31	0.073909144	-92.076095	0.038920117	-72.328592	0.038812725	-72.341792	0.13843581	-73.357289	
5.41	0.074833012	-89.817922	0.038807767	-73.732379	0.038776505	-73.757279	0.13700563	-74.12111	
5.51	0.076227643	-87.727322	0.038810905	-75.062768	0.038712727	-75.077468	0.13953427	-74.729664	
5.61	0.07711503	-85.014728	0.03873677	-76.469348	0.038603209	-76.403848	0.14417882	-74.573263	
5.71	0.077394519	-82.757218	0.038624923	-77.680483	0.038567157	-77.808683	0.1442176	-72.210336	
5.81	0.078321175	-79.709123	0.038605005	-79.024664	0.038538394	-79.086664	0.14176043	-72.810888	
5.91	0.078337501	-77.197137	0.038589543	-80.281952	0.038460917	-80.399552	0.14566539	-72.945191	
6.01	0.07897723	-74.018861	0.038468211	-81.748548	0.038419525	-81.735648	0.14913131	-71.621521	
6.11	0.079255359	-70.987086	0.038409384	-83.140849	0.038378442	-83.058949	0.14805405	-69.151236	
6.21	0.07949161	-67.041914	0.03834032	-84.334304	0.038344735	-84.346704	0.14447491	-69.421188	
6.31	0.079295983	-63.949983	0.038315242	-85.759674	0.038235922	-85.677374	0.14778988	-68.886834	
6.41	0.079603579	-59.699459	0.038246788	-86.927948	0.038251191	-87.025048	0.14869408	-66.887344	
6.51	0.079209355	-55.619827	0.038260135	-88.430977	0.038176534	-88.297977	0.14630433	-64.292822	
6.61	0.078810126	-51.214164	0.038280301	-89.752339	0.038165886	-89.767339	0.1412847	-64.035984	
6.71	0.078319945	-47.186727	0.03824556	-91.104181	0.038179569	-91.162881	0.14296286	-63.327946	
6.81	0.078428217	-42.851169	0.038186734	-92.57333	0.038134013	-92.53663	0.14098387	-60.878098	
6.91	0.078100212	-38.183866	0.038121439	-94.032927	0.038055663	-93.891727	0.13701334	-58.89573	
7.01	0.077536879	-33.764941	0.038095147	-95.411125	0.038016284	-95.350325	0.13073152	-58.305621	
7.11	0.077471194	-29.136564	0.038037763	-96.712854	0.03802025	-96.690454	0.13132355	-58.163378	
7.21	0.076928533	-24.302218	0.037929988	-98.17091	0.037868902	-98.16911	0.12757479	-55.096371	
7.31	0.07696136	-19.176317	0.037924995	-99.425988	0.037924995	-99.505888	0.12118618	-54.117925	
7.41	0.076544506	-14.357353	0.038031399	-100.86161	0.037908998	-100.88841	0.11545432	-54.032936	
7.51	0.076888411	-9.0815327	0.038016156	-102.36126	0.037902531	-102.25886	0.11433696	-54.128949	
7.61	0.076476026	-4.362074	0.037960846	-103.70845	0.037895346	-103.71275	0.11015126	-51.133583	
7.71	0.076626353	0.71944481	0.037942303	-105.27483	0.037898645	-105.23413	0.10224165	-50.4514	
7.81	0.075994425	5.6675049	0.037997752	-106.80622	0.03795403	-106.69762	0.096315041	-50.692963	
7.91	0.076324367	10.505471	0.037942416	-108.25194	0.037894395	-108.32694	0.093228543	-50.981588	
8.01	0.076381137	15.695375	0.037938341	-109.72364	0.037942709	-109.77714	0.087278967	-48.013438	
8.11	0.075862655	20.826957	0.037890563	-111.26141	0.037868758	-111.32811	0.077747711	-48.446971	
8.21	0.075535223	25.895875	0.037863323	-112.74219	0.037815403	-112.83889	0.071188443	-49.875162	
8.31	0.075511897	31.188877	0.03785212	-114.25122	0.037825981	-114.25032	0.066413796	-50.699765	
8.41	0.075298185	36.612945	0.037859395	-115.74538	0.037763624	-115.81108	0.058603912	-48.245329	
8.51	0.075070297	42.144604	0.037900519	-117.27003	0.037787239	-117.37173	0.047484341	-51.933053	
8.61	0.074806368	47.542057	0.037889225	-118.87132	0.037775978	-118.85652	0.04103546	-59.29941	
8.71	0.074839566	53.454219	0.037870639	-120.37061	0.037770491	-120.47421	0.035531492	-65.374097	
8.81	0.07456913	59.50547	0.037887301	-122.02844	0.03777406	-121.98024	0.026877483	-71.597738	
8.91	0.073960723	65.624927	0.037948694	-123.51909	0.037809143	-123.68479	0.02196015	-101.73232	
9.01	0.073636473	71.131526	0.037938743	-125.15166	0.037868922	-125.18336	0.025377916	-121.82641	
9.11	0.074989018	77.358289	0.03800336	-126.75982	0.037867968	-126.83852	0.030324323	-137.49783	
9.21	0.074899613	84.075542	0.037887645	-128.41524	0.037809211	-128.43524	0.0341928	-149.68538	
9.31	0.076520948	89.877174	0.037901279	-130.14812	0.037787997	-130.15992	0.04636473	-161.40398	
9.41	0.078109093	96.987592	0.037776768	-131.85541	0.03774199	-131.94171	0.056033066	-160.12128	
9.51	0.080028192	102.85027	0.037500479	-133.49059	0.037427155	-133.48689	0.061906055	-164.2484	
9.61	0.082203565	108.80134	0.037369401	-134.78075	0.037283454	-134.86495	0.072451221	-167.03126	
9.71	0.083675559	114.70018	0.037421167	-136.25342	0.037257811	-136.28572	0.08367038	-167.77925	
9.81	0.085442471	120.18282	0.037259748	-137.73937	0.03715266	-137.80177	0.092570302	-166.7373	
9.91	0.087891751	125.36804	0.03711761	-139.02071	0.037100521	-138.98571	0.099087653	-167.96207	
10.01	0.090348499	130.26385	0.03720211	-140.45828	0.037082378	-140.36968	0.10993287	-168.9783	
10.11	0.09355457	135.31684	0.036998735	-141.91707	0.036985958	-141.96107	0.12077573	-168.7046	
10.21	0.096205925	140.03817	0.036979528	-143.29091	0.036894478	-143.34551	0.12918566	-167.1247	
10.31	0.099308579	144.90975	0.03682885	-144.33471	0.036833091	-144.41291	0.13453623	-167.50715	
10.41	0.10219362	148.59182	0.036757192	-145.69102	0.036689545	-145.74572	0.14546391	-167.58202	
10.51	0.10624734	152.63864	0.036918698	-146.89777	0.036782935	-146.86937	0.15552016	-166.7065	
10.61	0.10954298	156.57907	0.037015692	-148.25513	0.036926307	-148.26103	0.16246968	-165.33752	
10.71	0.11278047	160.24398	0.036958022	-149.721	0.036877266	-149.6714	0.16805242	-165.63935	
10.81	0.1161716	163.52837	0.037017783	-151.13106	0.036970933	-151.12906	0.17842552	-165.30367	
10.91	0.11934481	166.73674	0.03707394	-152.66952	0.036997191	-152.55152	0.18586835	-163.98377	
11.01	0.12296095	169.55906	0.037077005	-153.97288	0.036910901	-153.92408	0.19069009	-162.9906	
11.11	0.12578404	172.65047	0.037011309	-155.37037	0.036887943	-155.34327	0.19458126	-162.95798	
11.21	0.12837446	174.96735	0.036991656	-156.80055	0.036927829	-156.81845	0.20233093	-162.63827	
11.31	0.1312588	177.27048	0.037029699	-158.1792	0.036944533	-158.2433	0.20727678	-161.5161	
11.41	0.13469566	179.34229	0.037023517	-159.47638	0.036972402	-159.47198	0.20983626	-160.66875	
11.51	0.13705007	-178.54823	0.037009562	-161.01201	0.036911691	-160.89001	0.21134075	-160.91063	
11.61	0.13947732	-176.86483	0.037078255	-162.3806	0.0369334	-162.2108	0.21807238	-161.09443	
11.71	0.1421006	-175.16503	0.036967599	-163.81828	0.036891069	-163.80938	0.2205509	-160.17864	
11.81	0.1445665	-173.72328	0.036884553	-165.21493	0.036859083	-165.15093	0.22205838	-160.40014	
11.91	0.14711916	-172.41463	0.036927964	-166.56586	0.036868491	-166.58466	0.22421101	-160.61678	
12.01	0.14972071	-171.23628	0.036906758	-168.08808	0.036821875	-168.10758	0.22937337	-160.97873	
12.11	0.15240663	-170.20205	0.036848985	-169.5476	0.036789639	-169.657	0.23111396	-160.3515	
12.21	0.15537571	-169.30995	0.036842116	-170.96792	0.03675315	-170.96712	0.23215708	-161.01526	
12.31	0.15851908	-168.65714	0.036739088	-172.73644	0.036705266	-172.62574	0.23565522	-161.45311	
12.41	0.1614831	-168.41949	0.036571686	-174.37207	0.036533812	-174.33517	0.24122723	-161.95591	
12.51	0.16349574	-168.30037	0.036125016	-175.70059	0.036066836	-175.84499	0.24296628	-161.37286	
12.61	0.16507085	-167.7735	0.0358638	-176.62408	0.035748375	-176.54708	0.24392039	-162.36199	
12.71	0.16824704	-166.58752	0.035938636	-177.46346	0.035880757	-177.49526	0.24949309	-162.82685	
12.81	0.17162348	-165.90171	0.036054289	-178.72363	0.036041839	-178.72313	0.25420322	-163.11063	
12.91	0.17613902	-165.16308	0.036191759	-179.94522	0.036079432	179.93508	0.2575175	-162.794	
13.01	0.18011677	-164.71071	0.036249363	178.48898	0.036199317	178.43738	0.25982472	-163.59329	
13.11	0.18561424	-164.34512	0.036271735	176.97607	0.036150835	176.97787	0.26588966	-164.02729	
13.21	0.19062232	-163.8428	0.036154353	175.51262	0.036054593	175.40372	0.27039062	-164.18376	
13.31	0.19533684	-163.54279	0.036007303	173.93806	0.035953452	173.91966	0.27476458	-164.14889	
13.41	0.20087227	-163.20426	0.035980477	172.7635	0.03592253	172.7644	0.27836656	-164.71253	
13.51	0.2069483	-162.67316	0.035961832	171.44514	0.035825463	171.48454	0.28582156	-164.9928	
13.61	0.21325792	-162.30732	0.035997645	170.06992	0.035898317	170.04952	0.29176209	-164.84609	
13.71	0.22075613	-161.85574	0.03591712	168.69711	0.035875793	168.59721	0.29671143	-164.69128	
13.81	0.22779255	-161.14609	0.035888574	167.1918	0.035822526	167.2549	0.30191985	-165.04591	
13.91	0.23488827	-160.66046	0.035754919	165.82245	0.035738457	165.86155	0.31114282	-164.79992	
14.01	0.24309133	-160.13383	0.035728866	164.43765	0.035695973	164.34335	0.31640241	-164.24225	
14.11	0.2510082	-159.28844	0.035650309	162.89319	0.0355233	162.93009	0.32318756	-163.92016	
14.21	0.25832093	-158.57513	0.035616714	161.60419	0.035465318	161.53219	0.3290079	-163.71121	
14.31	0.26702341	-157.84605	0.035456651	160.23833	0.035366959	160.34843	0.33835542	-163.04676	
14.41	0.27539797	-156.95714	0.035361981	159.07446	0.035382343	158.95866	0.34270331	-162.17105	
14.51	0.28409814	-156.00905	0.035313171	157.62803	0.035231952	157.57923	0.34937439	-161.6724	
14.61	0.29268879	-155.02236	0.035215035	156.40698	0.035174515	156.40478	0.35480662	-160.92415	
14.71	0.30090299	-153.93244	0.035133431	154.88933	0.035044556	154.99383	0.36340894	-160.08074	
14.81	0.30916337	-153.04738	0.03508766	153.62498	0.034938512	153.72148	0.36745331	-158.73462	
14.91	0.31780044	-151.78719	0.034902006	152.40092	0.034865861	152.35752	0.37247499	-158.08073	
15.01	0.32482098	-150.66617	0.034738945	151.18561	0.034679005	151.03811	0.37790589	-156.99613	
15.11	0.33182854	-149.54686	0.034537436	150.02753	0.034513586	149.91093	0.38396785	-156.03089	
15.21	0.3387956	-148.37404	0.034549377	148.98706	0.034450079	148.97656	0.38765578	-154.41435	
15.31	0.34570073	-147.15096	0.034620187	147.89392	0.034568411	147.94892	0.39092677	-153.61611	
15.41	0.35167924	-145.99649	0.034632815	146.59441	0.034585001	146.68231	0.39599258	-152.24126	
15.51	0.35724554	-144.83585	0.034678298	145.34907	0.034586593	145.40037	0.39935032	-150.99633	
15.61	0.36048055	-143.51252	0.034577609	143.90928	0.034589554	143.84448	0.40092706	-149.35312	
15.71	0.36300965	-142.17179	0.034377287	142.68645	0.034290325	142.61505	0.40154993	-148.47669	
15.81	0.36744446	-140.61332	0.034307002	141.7258	0.034220217	141.7231	0.40556846	-147.07385	
15.91	0.37134234	-139.27192	0.034341605	140.61684	0.034337651	140.56744	0.40582078	-145.59624	
16.01	0.3725302	-137.97048	0.034399563	139.26602	0.034320446	139.31262	0.4051296	-144.11491	
16.11	0.37216355	-136.49946	0.034164945	137.87314	0.034149215	137.92724	0.40347903	-143.07412	
16.21	0.37257828	-134.67386	0.033860933	137.06818	0.033790835	137.02588	0.40516022	-141.69589	
16.31	0.37548112	-132.84332	0.033771628	136.70132	0.033791074	136.68212	0.40184992	-140.12018	
16.41	0.37750848	-131.26923	0.034078256	136.07406	0.033984225	136.09916	0.39799073	-138.94109	
16.51	0.37800754	-130.02451	0.034335975	135.02915	0.034312264	135.19425	0.3926177	-137.87502	
16.61	0.37708638	-129.06289	0.034746581	134.12176	0.0347066	134.21096	0.3894322	-136.91441	
16.71	0.37504811	-128.02055	0.035097666	133.14559	0.035025008	133.09509	0.38390036	-135.58486	
16.81	0.3699586	-127.09022	0.03568758	131.95822	0.035572723	131.89772	0.37660598	-134.56682	
16.91	0.36514261	-126.13262	0.036187441	130.17253	0.036112527	130.17563	0.36840711	-133.81662	
17.01	0.35749394	-125.35117	0.036409106	128.49545	0.036379776	128.59555	0.36136189	-133.07205	
17.11	0.34889991	-124.8455	0.036737708	127.05253	0.036653214	127.07753	0.35127758	-132.17808	
17.21	0.33735816	-124.66861	0.037210012	125.42129	0.037132981	125.34039	0.34000461	-131.57614	
17.31	0.32344559	-124.43947	0.037609637	123.63985	0.037622629	123.73355	0.32757793	-131.36209	
17.41	0.30487609	-124.25227	0.038214653	121.5786	0.038078511	121.5812	0.31592886	-131.17014	
17.51	0.28370525	-123.63703	0.038611743	119.19339	0.038549554	119.31429	0.29973669	-131.20385	
17.61	0.26320879	-122.00456	0.038937848	117.01589	0.038951299	117.12009	0.28463398	-131.83635	
17.71	0.24687389	-120.45086	0.039515052	114.67508	0.039401482	114.67588	0.26795727	-132.71103	
17.81	0.22699633	-120.70821	0.039816403	111.50708	0.039779747	111.44678	0.25300399	-133.85334	
17.91	0.20447503	-119.50555	0.039324535	107.94114	0.039143855	107.88084	0.23205474	-135.03774	
18.01	0.18766251	-116.35163	0.038130198	105.77245	0.038112636	105.82935	0.21347978	-138.56163	
18.11	0.1788742	-116.26999	0.03766669	104.81699	0.037701396	104.95439	0.1957578	-141.48398	
18.21	0.16748392	-119.71708	0.037984836	103.69727	0.037836443	103.81826	0.17627332	-147.1952	
18.31	0.15017307	-124.95877	0.038373691	102.02155	0.038281024	102.16324	0.15834895	-152.9242	
18.41	0.12883687	-132.97916	0.038858381	100.19541	0.038737777	100.16911	0.14316395	-164.14532	
18.51	0.10813629	-142.56478	0.039574903	98.319932	0.039456619	98.458432	0.13944126	-173.13074	
18.61	0.095255671	-155.96217	0.040476354	95.92289	0.040439091	95.66569	0.13399626	174.96598	
18.71	0.091544948	-172.2515	0.041060284	92.616904	0.041003596	92.652204	0.13597089	163.56298	
18.81	0.095761518	165.42495	0.041333936	89.071135	0.041281618	89.106332	0.14557778	149.70653	
18.91	0.11392499	147.06741	0.0414784	85.704732	0.041335387	85.550237	0.16578011	141.316	
19.01	0.13424927	133.45421	0.041326492	82.432328	0.041245684	82.493331	0.18306553	133.53992	
19.11	0.15394947	123.15069	0.041156249	79.569485	0.041037962	79.504587	0.20697463	128.13005	
19.21	0.17685463	119.02608	0.041138341	76.519642	0.041010661	76.635842	0.22932047	123.34999	
19.31	0.20359025	117.42192	0.041180094	73.283266	0.041085383	73.228266	0.25796492	119.91502	
19.41	0.23463287	115.8712	0.040779348	69.887694	0.040727736	69.912894	0.28195597	117.2317	
19.51	0.26668684	113.80705	0.040305909	66.436454	0.040236364	66.395454	0.3093358	115.1648	
19.61	0.29876753	112.10762	0.039631759	63.116962	0.039513307	63.12016	0.33476315	114.02895	
19.71	0.32783167	110.53073	0.038656917	60.541987	0.038603546	60.559284	0.3573179	113.25923	
19.81	0.35408032	109.06708	0.037709629	58.52934	0.037666238	58.574644	0.37947471	112.11198	
19.91	0.37457799	108.71385	0.037125536	56.407876	0.037112713	56.49328	0.40445975	111.56211	
20.01	0.39338764	109.2277	0.036876697	54.475295	0.036914927	54.810195	0.42680335	111.47706	
