!
! Hittite Microwave Corporation
! 2 Elizabeth Drive
! Chelmsford, MA 01824
! http://www.hittite.com
! Tel: 978-250-3343
! Fax: 978-250-3373
! 
! Device:      HMC424LP3
! Description: 0.5 dB GaAs MMIC 6-Bit Digital Attenuator
! Frequency:    DC -  13.00 GHz
! Package:     LP3  - 3x3 mm Quad Flatpack No-Lead (QFN) Plastic Package: 16 pin
! Ports:       2 RF, 7 DC
!              Pad  1  = Ground
!              Pad  2  = RF IN   =  Port 1
!              Pad  3  = Ground
!              Pad  4  = V6
!              Pad  5  = V5
!              Pad  6  = V4
!              Pad  7  = V3
!              Pad  8  = V2
!              Pad  9  = V1
!              Pad 10  = Ground
!              Pad 11  = RF OUT  = Port 2
!              Pad 12  = Ground
!              Pad 15  = VEE
!
! Control:     -5 Volt control voltage
! State:        54 
! Attenuation:  27.0 dB
! Voltages:    Vdd = -5.00 Volts  Idd =  -2.517 mA
!              V1  = 0.00 Volts  I1  =  29.0 uA
!              V2  = -5.00 Volts  I2  =  -1.0 uA
!              V3  = -5.00 Volts  I3  =  -1.0 uA
!              V4  = 0.00 Volts  I4  =  30.0 uA
!              V5  = -5.00 Volts  I5  =  -1.0 uA
!              V6  = -5.00 Volts  I6  =  -1.0 uA
!
! Data:    The device was measured on evaluation board 105354-1. 
!          Data was collected using a calibrated network analyzer.
!          The evaluation circuit board was modeled and simulated.  This was use
!          to removed the evaluation board circuit from the measured data.
!          The reference plane is the edge of the package pin.
!
! Misc:    Lot xxxx, Unit 1
!          Application 20120001, Data collected in Application 20090083
!
! Date Measured:  2009-09-15
! Date:           2012-05-14  MJV
! Note: 
!   Hittite supplies this data as a sample of measured data at the package pin
!   for this product.  Your particular data for this product may vary.
!   Data was taken at 25 degrees C.
!   Hittite reserves the right to change this data at anytime.
!
# GHz S MA R 50

0.01	0.081000657	173.78113	0.034396622	-1.3726427	0.034207064	0.89035728	0.041680767	10.338218	
0.11	0.084111923	178.57956	0.034650168	-2.1254652	0.034758045	-2.0927652	0.03926039	0.6826221	
0.21	0.082870995	178.12009	0.034636664	-3.3956758	0.034473554	-3.4142758	0.038538981	-7.7395182	
0.31	0.081233352	177.42848	0.034407455	-4.7827374	0.034443125	-4.5971374	0.043751335	-10.334853	
0.41	0.080356581	176.81057	0.034395244	-6.1436328	0.034442795	-6.1281328	0.04445081	-11.010508	
0.51	0.078382856	176.43253	0.034441758	-7.5542537	0.034350678	-7.4271537	0.043576955	-13.166308	
0.61	0.077387166	176.28836	0.034412097	-8.930107	0.034293446	-8.816707	0.045039534	-19.725944	
0.71	0.07472305	176.05435	0.03436959	-10.243499	0.034247143	-10.205799	0.051392942	-21.238597	
0.81	0.072840877	175.51636	0.034379842	-11.591419	0.03431657	-11.507719	0.051231189	-20.042808	
0.91	0.069982919	175.10741	0.034301726	-12.907867	0.034274093	-12.944567	0.052542262	-24.915666	
1.01	0.067823432	173.9989	0.034333835	-14.176108	0.034329883	-14.321208	0.056089564	-28.236959	
1.11	0.065347517	173.63695	0.034179483	-15.488015	0.034274055	-15.638915	0.062539852	-27.463861	
1.21	0.063084574	172.39727	0.034228528	-16.966746	0.03423641	-16.870446	0.061266459	-25.9417	
1.31	0.060720128	171.6191	0.034204371	-18.230748	0.034109991	-18.325448	0.063747606	-30.579519	
1.41	0.058070961	169.92499	0.034195189	-19.570175	0.034199126	-19.616875	0.06827118	-31.01329	
1.51	0.056123963	168.7024	0.034154275	-21.065171	0.034122833	-20.997871	0.072403629	-29.627121	
1.61	0.053381222	167.03313	0.034130687	-22.311239	0.03405611	-22.184939	0.070589545	-28.522708	
1.71	0.051627333	165.2126	0.034074009	-23.608645	0.034026967	-23.702045	0.072269111	-32.883895	
1.81	0.04948633	163.11397	0.034055075	-24.910653	0.034058996	-24.902353	0.076683558	-32.526656	
1.91	0.048306765	160.60319	0.034037497	-26.33815	0.034045335	-26.24285	0.077897876	-31.827594	
2.01	0.046938822	158.33623	0.034044394	-27.551409	0.033970005	-27.698509	0.075822579	-31.953128	
2.11	0.046131705	156.10331	0.03407719	-28.98075	0.033987074	-29.11525	0.077652374	-36.472324	
2.21	0.045241174	154.31376	0.033951375	-30.16642	0.033931837	-30.37192	0.082173958	-35.902647	
2.31	0.044536677	152.29759	0.03395313	-31.636713	0.033773791	-31.631913	0.081392211	-35.788514	
2.41	0.044166983	150.58935	0.033920382	-32.969443	0.033818998	-32.863443	0.079570076	-37.593356	
2.51	0.043702821	149.09635	0.033885875	-34.283797	0.033796264	-34.277997	0.082142199	-41.724147	
2.61	0.043848072	147.78966	0.033857178	-35.584252	0.033748211	-35.621552	0.086152885	-40.986846	
2.71	0.043445437	146.68612	0.033749543	-36.964329	0.033800093	-36.962529	0.083949401	-41.70215	
2.81	0.044036109	145.7485	0.033739207	-38.265337	0.033723673	-38.194637	0.083403672	-44.5056	
2.91	0.04353005	145.54311	0.033792832	-39.530444	0.03371123	-39.751444	0.086550887	-47.835306	
3.01	0.04387553	145.32024	0.033740386	-40.924585	0.033701563	-40.892785	0.089866076	-47.157269	
3.11	0.043763511	145.52921	0.033683477	-42.318021	0.033675722	-42.203621	0.086471917	-48.327595	
3.21	0.044009536	145.44526	0.033586898	-43.585427	0.033571435	-43.537927	0.087045913	-52.062799	
3.31	0.0441795	146.24162	0.033604104	-44.84703	0.033615713	-44.87503	0.090257356	-54.484298	
3.41	0.044308032	147.15458	0.033616602	-46.199501	0.033519985	-46.333701	0.092464183	-54.197011	
3.51	0.044238316	148.37189	0.033574457	-47.604917	0.033516526	-47.561517	0.088927148	-56.540301	
3.61	0.044632182	149.80399	0.033503256	-48.985783	0.033491686	-48.959683	0.091409841	-60.965686	
3.71	0.044198825	151.77226	0.033479697	-50.086343	0.033441174	-50.214443	0.09530657	-62.693813	
3.81	0.043753936	153.66596	0.033487382	-51.326448	0.033460405	-51.651748	0.096346341	-62.86729	
3.91	0.043488063	155.61491	0.033459929	-52.881853	0.033363762	-52.822553	0.094035642	-66.448076	
4.01	0.037386108	162.70085	0.033375294	-54.183569	0.033298533	-54.365769	0.106415	-68.322417	
4.11	0.036356524	164.65338	0.03339402	-55.671532	0.03340171	-55.593032	0.11054473	-68.574541	
4.21	0.035293466	167.5262	0.033348988	-56.895497	0.033356667	-56.903897	0.1115366	-68.972226	
4.31	0.033479892	171.05306	0.03335182	-58.145274	0.033255964	-58.175774	0.11144597	-71.719286	
4.41	0.03153514	173.39655	0.03330633	-59.544907	0.033195314	-59.604907	0.11856044	-73.42605	
4.51	0.029525156	176.42273	0.033211152	-60.878005	0.033134769	-60.918205	0.12164112	-72.451474	
4.61	0.027821435	-179.73725	0.033153575	-62.130704	0.033180304	-62.267104	0.12228853	-72.61794	
4.71	0.025376071	-174.66409	0.033196334	-63.419735	0.033093304	-63.517435	0.12279745	-74.377658	
4.81	0.023308656	-170.17174	0.033163551	-64.885285	0.033075851	-64.969785	0.12978061	-75.196168	
4.91	0.020906923	-162.97504	0.033108325	-66.274369	0.033058809	-66.325869	0.13130719	-73.44626	
5.01	0.018818655	-155.95925	0.033022087	-67.518888	0.032987889	-67.571888	0.13056725	-73.931018	
5.11	0.016474406	-143.27181	0.033043924	-68.841726	0.03298311	-68.798826	0.13167617	-75.039743	
5.21	0.014715489	-131.91761	0.033026484	-70.213077	0.032954319	-70.247477	0.13747927	-75.487831	
5.31	0.014045984	-113.93008	0.032919935	-71.650484	0.032870701	-71.726584	0.13841509	-73.319122	
5.41	0.014008845	-94.785752	0.032968604	-72.991827	0.032843585	-73.026227	0.13690748	-74.134811	
5.51	0.015655649	-77.709948	0.032844822	-74.342706	0.03280703	-74.470206	0.13951201	-74.726301	
5.61	0.018316579	-61.67955	0.032829001	-75.766432	0.03266688	-75.770032	0.14415097	-74.586012	
5.71	0.021184448	-50.578082	0.032719667	-77.046976	0.03263314	-77.017476	0.14418322	-72.250977	
5.81	0.025652334	-40.810372	0.032668412	-78.399947	0.032724877	-78.465947	0.14171891	-72.833043	
5.91	0.029514711	-33.744718	0.032601156	-79.697992	0.032563644	-79.774492	0.14550321	-72.968874	
6.01	0.034463451	-27.970236	0.032590052	-81.062036	0.032522584	-81.037536	0.14899285	-71.643135	
6.11	0.039398219	-23.351073	0.032450358	-82.383386	0.03242795	-82.394286	0.14794108	-69.182842	
6.21	0.045398845	-18.218621	0.032420241	-83.786618	0.032390395	-83.652918	0.14447285	-69.43912	
6.31	0.050210006	-14.751434	0.032404135	-85.006299	0.032340776	-85.096899	0.1477469	-68.889976	
6.41	0.056550739	-11.085443	0.032331814	-86.3412	0.032268596	-86.3898	0.14856296	-66.89886	
6.51	0.062326729	-7.4398412	0.032274723	-87.801784	0.032233875	-87.747484	0.14625353	-64.296426	
6.61	0.068126827	-3.9112039	0.032357092	-89.157385	0.032293824	-89.182385	0.14115218	-64.011062	
6.71	0.073472683	-1.1437949	0.032239326	-90.481383	0.032157772	-90.602183	0.14280154	-63.324961	
6.81	0.079288409	1.4648815	0.032204871	-91.873144	0.032138201	-91.981644	0.14083932	-60.894589	
6.91	0.084999612	4.2674292	0.032111699	-93.35562	0.03210061	-93.33732	0.13691351	-58.906822	
7.01	0.089914911	6.806138	0.03207712	-94.702479	0.0320144	-94.771879	0.13060359	-58.285509	
7.11	0.095138298	9.1395106	0.031975451	-96.197871	0.031946014	-96.136871	0.13116742	-58.139065	
7.21	0.099968972	11.699297	0.031926335	-97.444664	0.031849239	-97.476064	0.12747283	-55.081223	
7.31	0.10504204	14.187661	0.031879341	-98.933951	0.031846326	-98.821851	0.12108376	-54.098417	
7.41	0.10928656	16.500793	0.031888302	-100.18882	0.031811298	-100.29302	0.11536351	-53.988947	
7.51	0.11399194	18.853048	0.031865341	-101.60051	0.031810359	-101.61301	0.11430645	-54.055538	
7.61	0.11740565	20.997737	0.031886079	-103.00903	0.031798096	-102.98443	0.11008748	-51.05436	
7.71	0.12122554	23.252154	0.031845908	-104.47848	0.0317873	-104.41448	0.10221079	-50.373908	
7.81	0.1236898	25.408489	0.031803239	-105.96618	0.031803239	-105.93658	0.096179862	-50.645088	
7.91	0.12666394	27.407311	0.031791774	-107.35119	0.031747883	-107.36219	0.093245398	-50.884937	
8.01	0.12904872	29.627973	0.031755849	-108.83341	0.031668225	-108.81121	0.087172217	-47.952218	
8.11	0.13041858	31.85285	0.031774752	-110.30116	0.031705322	-110.33976	0.077658009	-48.329458	
8.21	0.13144232	34.005118	0.031692695	-111.80754	0.031590694	-111.88024	0.071005494	-49.845113	
8.31	0.13239436	36.290782	0.031660355	-113.26203	0.031664001	-113.24733	0.066374477	-50.584122	
8.41	0.1326868	38.568798	0.031659985	-114.66581	0.031649052	-114.70401	0.058532707	-48.113777	
8.51	0.13238673	40.948463	0.031686701	-116.21435	0.031621104	-116.21075	0.047400942	-51.887255	
8.61	0.13164821	43.243424	0.031695365	-117.67527	0.031640676	-117.67067	0.040981105	-59.178175	
8.71	0.13051213	45.825703	0.031674394	-119.18701	0.031641591	-119.14711	0.035534988	-65.073321	
8.81	0.12856802	48.528977	0.031652428	-120.75165	0.031597813	-120.70115	0.026817363	-71.401507	
8.91	0.12569103	51.107611	0.031686917	-122.30067	0.031705163	-122.35377	0.021887418	-101.36496	
9.01	0.12267034	53.577538	0.031767316	-123.90522	0.031690605	-123.78702	0.025257736	-121.80462	
9.11	0.12032311	56.55901	0.031776131	-125.38412	0.031648346	-125.53582	0.03013111	-137.66966	
9.21	0.11582756	59.822432	0.031739655	-127.08325	0.031637503	-126.94235	0.034109083	-149.65545	
9.31	0.11291628	62.837836	0.031708059	-128.86207	0.031675221	-128.80477	0.046118834	-161.51679	
9.41	0.10847746	67.072546	0.031620688	-130.55621	0.031635253	-130.57581	0.055846987	-159.9684	
9.51	0.10473492	70.670984	0.031372881	-132.07253	0.031293519	-131.99733	0.061827497	-164.26222	
9.61	0.10045523	74.737924	0.031288396	-133.50734	0.03127399	-133.39534	0.072236673	-167.08481	
9.71	0.095316961	78.656462	0.031224699	-134.76828	0.031188771	-134.72568	0.083504873	-167.84646	
9.81	0.090297967	82.962222	0.03116183	-136.22287	0.031072268	-136.19917	0.092315353	-166.74653	
9.91	0.085752224	87.621348	0.031048545	-137.28264	0.030945055	-137.40464	0.099067772	-168.01357	
10.01	0.081298149	92.510614	0.031107518	-138.91827	0.031082458	-138.78727	0.10976729	-168.94038	
10.11	0.077120633	98.596792	0.031045462	-140.43697	0.030999032	-140.33007	0.12067856	-168.68586	
10.21	0.073121416	104.62645	0.030897469	-141.53786	0.030879688	-141.61136	0.1290535	-167.07911	
10.31	0.069253209	111.97905	0.030887472	-142.79479	0.030802245	-142.78689	0.1344028	-167.51093	
10.41	0.066768155	118.43899	0.030840222	-143.98127	0.03081183	-144.03097	0.14536647	-167.62598	
10.51	0.065455158	126.60373	0.030927117	-145.17576	0.030905761	-145.05566	0.15538706	-166.65793	
10.61	0.064185491	134.8323	0.031137987	-146.6016	0.031012768	-146.4108	0.16249948	-165.30394	
10.71	0.063727984	142.94702	0.03111107	-148.03371	0.031025226	-147.99511	0.1680532	-165.6316	
10.81	0.064566095	150.74325	0.031171811	-149.38279	0.031075064	-149.37399	0.17827843	-165.34543	
10.91	0.065893552	158.28196	0.031173795	-150.77755	0.031166617	-150.81955	0.18574956	-163.9732	
11.01	0.068662448	165.06552	0.031172679	-152.24198	0.031190629	-152.21568	0.19067754	-163.02414	
11.11	0.071161533	172.099	0.031181109	-153.48936	0.031066445	-153.64576	0.19458521	-162.89869	
11.21	0.074113384	177.44701	0.031164218	-154.87165	0.031103284	-155.01955	0.20224246	-162.61191	
11.31	0.077698102	-177.64627	0.031263149	-156.45479	0.031180475	-156.47989	0.20711733	-161.51176	
11.41	0.082193396	-173.45423	0.031206414	-157.71825	0.031091657	-157.74195	0.20965475	-160.65179	
11.51	0.086000238	-169.26067	0.031200944	-159.12536	0.031068317	-159.14276	0.21121205	-160.89386	
11.61	0.090046777	-166.16458	0.03118775	-160.74057	0.03111602	-160.61717	0.21797567	-161.05585	
11.71	0.094388076	-163.08288	0.031115615	-161.95615	0.031140701	-162.04525	0.22052455	-160.2099	
11.81	0.098715726	-160.60332	0.031178656	-163.46253	0.031167889	-163.59443	0.22209528	-160.37586	
11.91	0.10313973	-158.45704	0.031119622	-164.98005	0.031123205	-165.02255	0.22412904	-160.62165	
12.01	0.1076174	-156.6903	0.031088646	-166.51045	0.031070755	-166.46285	0.22928888	-160.92587	
12.11	0.11233124	-155.16765	0.031131696	-168.11241	0.031027929	-167.98551	0.23113523	-160.33292	
12.21	0.11712125	-154.03004	0.031083916	-169.46327	0.031023138	-169.53737	0.23221677	-160.98358	
12.31	0.12206491	-153.24789	0.031028182	-171.16478	0.030924759	-171.04648	0.23565798	-161.45171	
12.41	0.12662576	-153.0481	0.030821442	-172.90839	0.030789523	-173.01989	0.2410809	-161.92001	
12.51	0.12987851	-152.96128	0.030335009	-174.39085	0.030303593	-174.31185	0.24294876	-161.36441	
12.61	0.13293546	-152.25042	0.030047639	-175.01786	0.02999234	-174.97356	0.24386708	-162.39387	
12.71	0.13828414	-150.89353	0.030154841	-175.79702	0.03009588	-175.82062	0.24944885	-162.78027	
12.81	0.14357609	-150.20567	0.030323758	-177.06259	0.030229643	-176.93849	0.25422872	-163.095	
12.91	0.15004677	-149.65527	0.030418812	-178.34926	0.030348851	-178.33786	0.25752503	-162.78318	
13.01	0.15573742	-149.4549	0.030524985	-179.92885	0.030370746	-179.68395	0.25974295	-163.59144	
13.11	0.16296966	-149.41888	0.030505686	178.791	0.030397005	178.7428	0.26584095	-164.01764	
13.21	0.16978661	-149.26256	0.030474215	177.05637	0.030390128	177.08967	0.27046531	-164.17959	
13.31	0.17618297	-149.23094	0.030273881	175.63471	0.030221645	175.57991	0.27473688	-164.14636	
13.41	0.1832493	-149.27527	0.030183016	174.44434	0.030120531	174.54434	0.27827265	-164.71951	
13.51	0.19115685	-149.11764	0.030214766	173.17222	0.030141804	173.15132	0.28584518	-165.0013	
13.61	0.19896276	-149.18188	0.03021466	171.90224	0.030183369	171.71344	0.29174788	-164.8499	
13.71	0.20824484	-149.2001	0.030232761	170.34393	0.030066149	170.45653	0.29667065	-164.67451	
13.81	0.21715274	-148.91751	0.030153492	168.97661	0.030091069	169.07531	0.30186236	-165.0508	
13.91	0.2260521	-148.86068	0.030098205	167.58333	0.030108603	167.59873	0.31116737	-164.7851	
14.01	0.23600476	-148.78183	0.030045544	166.03828	0.030028253	166.19088	0.31640815	-164.26122	
14.11	0.24581047	-148.40517	0.030034337	164.78748	0.029920445	164.67468	0.32312291	-163.93702	
14.21	0.2549944	-148.05388	0.029893851	163.44419	0.029869769	163.39719	0.32894935	-163.72222	
14.31	0.26551315	-147.77296	0.029766827	162.05747	0.029732577	162.02227	0.33824719	-163.06437	
14.41	0.27574414	-147.30005	0.02972471	160.69312	0.029717866	160.68232	0.34260439	-162.18047	
14.51	0.28632163	-146.78488	0.029654795	159.40433	0.029610445	159.33193	0.34938922	-161.6791	
14.61	0.29659163	-146.21928	0.029603445	158.07033	0.029565978	158.06693	0.35465676	-160.93805	
14.71	0.3069179	-145.49527	0.029504427	156.75353	0.029467086	156.76663	0.36341369	-160.08356	
14.81	0.31687799	-144.97718	0.029403779	155.44675	0.029353044	155.26145	0.36743767	-158.7467	
14.91	0.32740168	-144.10222	0.029325073	154.12384	0.029203782	154.09604	0.37241591	-158.08387	
15.01	0.3361214	-143.33447	0.029208402	152.85657	0.029117749	152.82107	0.37785743	-157.00243	
15.11	0.34477827	-142.53421	0.028969279	151.76908	0.028935946	151.79758	0.38396404	-156.02619	
15.21	0.35334711	-141.65347	0.02887173	150.81976	0.028865083	150.91946	0.38754142	-154.41607	
15.31	0.36177283	-140.75696	0.029011737	149.80462	0.028971684	149.95242	0.39079189	-153.63213	
15.41	0.36919015	-139.93037	0.029124134	148.61065	0.029077229	148.57815	0.39588312	-152.22353	
15.51	0.37609609	-139.01617	0.029075511	147.26274	0.029062124	147.25984	0.39925606	-151.00309	
15.61	0.38072068	-137.95362	0.028947114	145.81381	0.028950447	145.74941	0.40086055	-149.37015	
15.71	0.38430648	-136.81904	0.028809698	144.5047	0.02873682	144.5154	0.40148015	-148.46273	
15.81	0.39012992	-135.47815	0.02873622	143.67159	0.028666828	143.62469	0.40535891	-147.07482	
15.91	0.39559883	-134.41429	0.028797651	142.46233	0.028767828	142.64053	0.40577817	-145.58425	
16.01	0.39794334	-133.31739	0.028737774	141.18158	0.028760943	141.16968	0.40495135	-144.11473	
16.11	0.39860045	-132.0535	0.028578793	139.85905	0.028536051	139.83285	0.403115	-143.08483	
16.21	0.4003252	-130.42662	0.028202215	139.04812	0.028140591	139.16512	0.40495592	-141.68937	
16.31	0.40461016	-128.84637	0.028147959	138.98591	0.028067059	138.90191	0.40163515	-140.09351	
16.41	0.40794703	-127.51018	0.028384535	138.44995	0.028306214	138.49475	0.39799027	-138.92207	
16.51	0.40962431	-126.49518	0.028657259	137.68708	0.028657259	137.82108	0.39239632	-137.85921	
16.61	0.40970781	-125.69326	0.029051833	136.9051	0.028968336	136.9502	0.38938871	-136.89555	
16.71	0.40846765	-124.8593	0.029424085	135.85149	0.029315882	135.92779	0.38387821	-135.5631	
16.81	0.40411418	-124.06619	0.029920358	134.78138	0.02985498	134.94448	0.37654311	-134.55507	
16.91	0.40023022	-123.31346	0.030420575	133.02879	0.030410069	132.96719	0.36832832	-133.7723	
17.01	0.39331059	-122.71038	0.030732694	131.33705	0.030647894	131.32545	0.36117688	-133.03736	
17.11	0.38534777	-122.31865	0.031032063	129.99979	0.030878817	129.85509	0.35116175	-132.13009	
17.21	0.37452203	-122.22455	0.031416848	128.48914	0.031301318	128.46915	0.33993616	-131.53375	
17.31	0.36093558	-122.13148	0.031968065	126.67482	0.031990153	126.75872	0.32750301	-131.30718	
17.41	0.34269983	-122.00061	0.032509753	124.65662	0.032408854	124.70282	0.31582599	-131.15369	
17.51	0.32227984	-121.58068	0.033032723	122.28211	0.03295675	122.2978	0.29959971	-131.14762	
17.61	0.30236425	-120.25149	0.03340636	119.81448	0.033325691	119.94468	0.2843914	-131.83924	
17.71	0.2864792	-119.09272	0.033857579	117.35339	0.033791378	117.27139	0.26813602	-132.68943	
17.81	0.26698728	-119.53117	0.034197898	113.87614	0.034150684	113.93794	0.25288949	-133.82938	
17.91	0.24449981	-118.79745	0.03370713	110.00482	0.033625734	110.08432	0.23194897	-135.01229	
18.01	0.22754422	-116.43355	0.032657653	107.73949	0.032590048	107.72709	0.21346921	-138.49953	
18.11	0.21905412	-116.59523	0.031849215	106.98512	0.03184188	106.96273	0.19559654	-141.38361	
18.21	0.20868863	-119.84531	0.032000095	106.1357	0.031989043	106.26849	0.1763904	-147.08958	
18.31	0.1921746	-124.70734	0.032298221	104.85679	0.032398769	104.87908	0.15787434	-152.80262	
18.41	0.17073724	-131.42912	0.032852373	103.4658	0.032837248	103.3307	0.14301217	-164.01326	
18.51	0.14988603	-139.08125	0.033732541	101.79723	0.03358142	101.67933	0.1394676	-173.10684	
18.61	0.13526475	-149.03414	0.03459352	98.944271	0.03459352	99.183171	0.13376001	175.12526	
18.71	0.12864781	-160.96424	0.035386831	95.824574	0.035232355	95.882474	0.13610555	163.63024	
18.81	0.12580655	-178.52129	0.035613651	92.265744	0.0355522	92.383635	0.14545873	149.71112	
18.91	0.13555561	164.02036	0.035888599	88.877324	0.035888594	88.827421	0.16552919	141.40065	
19.01	0.14864046	149.5507	0.035867795	85.677001	0.03581003	85.733096	0.18300242	133.57861	
19.11	0.16244125	137.72278	0.035740434	82.467183	0.035802201	82.424681	0.2066336	128.13586	
19.21	0.18403951	131.73085	0.035876417	79.403391	0.035793903	79.193491	0.22909394	123.39367	
19.31	0.21071202	128.32601	0.035856701	75.76636	0.035893874	75.77576	0.2574531	119.83849	
19.41	0.24297466	125.31782	0.035657208	72.493195	0.035632585	72.373195	0.28181448	117.25765	
19.51	0.27529177	121.95768	0.035213571	69.004306	0.035080039	69.071806	0.30905467	115.17778	
19.61	0.30789874	119.18726	0.034624373	65.657766	0.034540769	65.598072	0.33441543	114.01586	
19.71	0.33770603	116.78856	0.033867915	62.884823	0.033646395	62.850327	0.35711464	113.24898	
19.81	0.364632	114.66271	0.032978274	60.936062	0.03289485	60.929865	0.37929994	112.11061	
19.91	0.38581439	113.78758	0.032619107	58.521202	0.032465502	58.705493	0.40411212	111.57744	
20.01	0.40611545	113.8126	0.03238674	56.504079	0.032182311	56.783679	0.42647952	111.54544	
