!
! Hittite Microwave Corporation
! 2 Elizabeth Drive
! Chelmsford, MA 01824
! http://www.hittite.com
! Tel: 978-250-3343
! Fax: 978-250-3373
! 
! Device:      HMC424LP3
! Description: 0.5 dB GaAs MMIC 6-Bit Digital Attenuator
! Frequency:    DC -  13.00 GHz
! Package:     LP3  - 3x3 mm Quad Flatpack No-Lead (QFN) Plastic Package: 16 pin
! Ports:       2 RF, 7 DC
!              Pad  1  = Ground
!              Pad  2  = RF IN   =  Port 1
!              Pad  3  = Ground
!              Pad  4  = V6
!              Pad  5  = V5
!              Pad  6  = V4
!              Pad  7  = V3
!              Pad  8  = V2
!              Pad  9  = V1
!              Pad 10  = Ground
!              Pad 11  = RF OUT  = Port 2
!              Pad 12  = Ground
!              Pad 15  = VEE
!
! Control:     -5 Volt control voltage
! State:        52 
! Attenuation:  26.0 dB
! Voltages:    Vdd = -5.00 Volts  Idd =  -2.394 mA
!              V1  = 0.00 Volts  I1  =  30.0 uA
!              V2  = 0.00 Volts  I2  =  29.0 uA
!              V3  = -5.00 Volts  I3  =  -1.0 uA
!              V4  = 0.00 Volts  I4  =  29.0 uA
!              V5  = -5.00 Volts  I5  =  -1.0 uA
!              V6  = -5.00 Volts  I6  =  -1.0 uA
!
! Data:    The device was measured on evaluation board 105354-1. 
!          Data was collected using a calibrated network analyzer.
!          The evaluation circuit board was modeled and simulated.  This was use
!          to removed the evaluation board circuit from the measured data.
!          The reference plane is the edge of the package pin.
!
! Misc:    Lot xxxx, Unit 1
!          Application 20120001, Data collected in Application 20090083
!
! Date Measured:  2009-09-15
! Date:           2012-05-14  MJV
! Note: 
!   Hittite supplies this data as a sample of measured data at the package pin
!   for this product.  Your particular data for this product may vary.
!   Data was taken at 25 degrees C.
!   Hittite reserves the right to change this data at anytime.
!
# GHz S MA R 50

0.01	0.014678702	153.01439	0.039506063	-1.029749	0.038615686	-0.64474896	0.044261722	8.5667681	
0.11	0.015629292	-177.17155	0.038661338	-1.6197065	0.038280436	-1.8118065	0.039081475	0.87786043	
0.21	0.015156596	-172.7987	0.038445697	-3.5559703	0.038405881	-3.3646703	0.038558752	-7.8041973	
0.31	0.013697328	-168.06056	0.038388607	-4.8368549	0.038393027	-4.6702549	0.043924245	-10.123511	
0.41	0.013408217	-162.3324	0.038351571	-6.1691321	0.038448833	-6.1854321	0.044586542	-10.974252	
0.51	0.012548968	-154.14168	0.038287134	-7.5603695	0.0382651	-7.5553695	0.043748832	-13.143902	
0.61	0.012792783	-145.298	0.03833614	-8.9011209	0.038195165	-8.9068209	0.045153206	-19.773337	
0.71	0.01221083	-132.84117	0.038242845	-10.211755	0.038172463	-10.280155	0.051479975	-21.206031	
0.81	0.012341238	-123.76374	0.038194969	-11.650698	0.038089578	-11.735998	0.051352579	-19.97653	
0.91	0.012644947	-110.53719	0.03816309	-13.087745	0.038070934	-13.053145	0.052725559	-24.845909	
1.01	0.012862445	-102.42945	0.038069335	-14.300785	0.038078102	-14.285385	0.056120792	-28.150657	
1.11	0.014116436	-93.659017	0.038040273	-15.698593	0.038031515	-15.688893	0.062601188	-27.439169	
1.21	0.014793123	-86.560772	0.03806193	-17.025585	0.038005006	-16.997985	0.06139792	-25.939112	
1.31	0.016321343	-80.26201	0.038006669	-18.385545	0.038011045	-18.434545	0.063747607	-30.53804	
1.41	0.017117624	-73.663343	0.03795074	-19.701011	0.038003207	-19.740911	0.068424162	-31.040622	
1.51	0.018383655	-70.3931	0.037986562	-21.099102	0.037899195	-21.086002	0.072436325	-29.689982	
1.61	0.019761555	-64.950575	0.037936851	-22.385812	0.037845241	-22.491312	0.070661645	-28.566458	
1.71	0.020669027	-62.487461	0.037863726	-23.822564	0.037811451	-23.733164	0.072375719	-32.913942	
1.81	0.021904901	-59.235824	0.037885089	-24.982666	0.037797956	-25.214366	0.076763027	-32.515976	
1.91	0.022251226	-57.234624	0.037881903	-26.44095	0.037781726	-26.50185	0.078020933	-31.876699	
2.01	0.023014656	-55.705395	0.037875682	-27.742559	0.03778857	-27.756759	0.075918357	-32.002943	
2.11	0.023346648	-54.9748	0.037820041	-29.129226	0.037676626	-29.155526	0.077700357	-36.44619	
2.21	0.024012322	-55.358213	0.037749478	-30.484011	0.037714725	-30.412011	0.082266947	-35.921309	
2.31	0.024449583	-55.156831	0.037759873	-31.845771	0.03769906	-31.830171	0.081483022	-35.7928	
2.41	0.024832377	-56.52649	0.03761063	-33.071499	0.037558705	-33.164099	0.079672977	-37.582258	
2.51	0.025068916	-57.517656	0.037620051	-34.431349	0.037611389	-34.328949	0.082328206	-41.69164	
2.61	0.025064844	-59.630874	0.03762728	-35.854775	0.037493227	-35.764375	0.0862574	-40.97921	
2.71	0.025623019	-61.423548	0.037620185	-37.204129	0.037542304	-36.949629	0.084090955	-41.667166	
2.81	0.025277722	-64.436437	0.037530983	-38.503116	0.037487798	-38.339916	0.083426386	-44.414177	
2.91	0.026329277	-67.651768	0.037525916	-39.751697	0.037461167	-39.820997	0.086593435	-47.907085	
3.01	0.026529748	-71.336194	0.037446081	-41.178055	0.037523762	-41.221155	0.089931046	-47.166393	
3.11	0.027474517	-74.880341	0.037481811	-42.409321	0.0373913	-42.450421	0.0865937	-48.284515	
3.21	0.027973355	-78.753162	0.03736124	-43.746528	0.03736124	-43.688428	0.087081331	-52.09104	
3.31	0.029208968	-82.902968	0.037289416	-45.139619	0.037276539	-45.053319	0.090361534	-54.532441	
3.41	0.030562064	-86.861927	0.037345349	-46.516366	0.037233728	-46.468566	0.092582154	-54.210304	
3.51	0.032405871	-90.706394	0.03725448	-47.748978	0.037288808	-47.771078	0.089064237	-56.542938	
3.61	0.034191749	-94.508015	0.037225334	-49.130924	0.037208195	-49.124624	0.091523339	-60.984034	
3.71	0.036910056	-97.229235	0.037210131	-50.345073	0.037167316	-50.508373	0.095507078	-62.697979	
3.81	0.039430269	-99.526858	0.037203762	-51.84642	0.037088294	-51.94692	0.096460081	-62.848443	
3.91	0.042186651	-101.70579	0.037140855	-53.18395	0.037059699	-53.10295	0.094078885	-66.468072	
4.01	0.049239464	-97.213006	0.03708672	-54.45807	0.037052578	-54.50827	0.10642086	-68.313898	
4.11	0.051730666	-98.120418	0.036984862	-55.779273	0.037018942	-55.856273	0.11066735	-68.545059	
4.21	0.054513285	-98.754896	0.03698684	-57.193815	0.036940028	-57.177715	0.11170816	-68.950557	
4.31	0.057531363	-98.513721	0.03700339	-58.389074	0.036892791	-58.425574	0.1116264	-71.698322	
4.41	0.059833554	-98.237125	0.036864171	-59.811278	0.036885398	-59.752078	0.11877885	-73.430667	
4.51	0.062045915	-97.823131	0.036835762	-61.067917	0.036814564	-61.154817	0.12171233	-72.479014	
4.61	0.064483268	-97.531267	0.036793524	-62.388034	0.036721582	-62.500634	0.12233319	-72.653214	
4.71	0.067137463	-96.623071	0.036752526	-63.755937	0.036756757	-63.698937	0.12283257	-74.402567	
4.81	0.069060231	-95.891196	0.0367802	-65.113226	0.036670268	-65.133826	0.12984384	-75.188481	
4.91	0.071496991	-94.692839	0.036631135	-66.538712	0.036584774	-66.473912	0.13145504	-73.475755	
5.01	0.073299743	-93.706735	0.036612788	-67.746298	0.036494952	-67.780098	0.13070078	-73.957119	
5.11	0.075656712	-91.979492	0.036580006	-69.065476	0.036525298	-69.135276	0.1317363	-75.035856	
5.21	0.076995367	-90.717447	0.03652093	-70.429945	0.036445325	-70.411745	0.13763101	-75.497367	
5.31	0.079056474	-88.995848	0.036456687	-71.746179	0.036410546	-71.862579	0.13854415	-73.323362	
5.41	0.080319341	-87.027253	0.036430774	-73.20359	0.036355356	-73.03129	0.13698139	-74.159201	
5.51	0.082004488	-85.233796	0.036344914	-74.340016	0.036328181	-74.377716	0.13955027	-74.723838	
5.61	0.08320364	-82.831821	0.036245795	-75.802376	0.036275018	-75.795776	0.14412838	-74.580413	
5.71	0.083882573	-80.839356	0.036257079	-77.068242	0.036148711	-77.075642	0.14421473	-72.244522	
5.81	0.085020305	-78.089873	0.036212676	-78.248509	0.036121071	-78.403809	0.14181658	-72.838624	
5.91	0.085254438	-75.857565	0.036069022	-79.629856	0.036060718	-79.686856	0.1455789	-72.974116	
6.01	0.086106851	-73.126387	0.036079929	-81.005845	0.0359307	-81.011145	0.14914089	-71.682063	
6.11	0.086513966	-70.400116	0.035925144	-82.231896	0.035954108	-82.468796	0.14798641	-69.199551	
6.21	0.086849432	-66.903569	0.035980106	-83.607993	0.03588909	-83.649093	0.14453605	-69.445473	
6.31	0.086795721	-64.265603	0.035853514	-84.850002	0.035853514	-84.934602	0.14781824	-68.912038	
6.41	0.087152036	-60.504079	0.035864069	-86.208334	0.035818678	-86.255334	0.14861806	-66.904658	
6.51	0.086716507	-56.935791	0.035823507	-87.560179	0.035724659	-87.546779	0.14631692	-64.346171	
6.61	0.086137927	-53.072059	0.035813931	-88.847492	0.035805686	-88.906092	0.14131009	-64.028787	
6.71	0.085467641	-49.524736	0.035790754	-90.398106	0.035745456	-90.253306	0.14296753	-63.352101	
6.81	0.085272021	-45.682426	0.035720512	-91.714465	0.035704066	-91.665165	0.14098601	-60.91635	
6.91	0.084552576	-41.575885	0.03573908	-93.067649	0.03559126	-93.124649	0.13699689	-58.938587	
7.01	0.083598633	-37.669303	0.035645737	-94.572378	0.035621123	-94.436478	0.13073801	-58.318891	
7.11	0.083006404	-33.5518	0.035631094	-95.856134	0.035622891	-95.881134	0.13120845	-58.175671	
7.21	0.08180245	-29.258775	0.035544538	-97.195808	0.035470954	-97.143408	0.12751767	-55.103215	
7.31	0.080952429	-24.60314	0.035513974	-98.643539	0.035481279	-98.617039	0.1211767	-54.118781	
7.41	0.079756184	-20.223468	0.035522322	-99.930085	0.035534593	-99.997685	0.11545826	-54.069678	
7.51	0.079081885	-15.304124	0.035592811	-101.38333	0.03555595	-101.36563	0.1142693	-54.09025	
7.61	0.077824265	-10.909272	0.035585303	-102.73573	0.035515723	-102.84613	0.11010144	-51.15627	
7.71	0.076902004	-5.950177	0.035603794	-104.30153	0.03544837	-104.39113	0.10220952	-50.442311	
7.81	0.075303147	-1.2623698	0.035589554	-105.78631	0.035515877	-105.79191	0.096312623	-50.705895	
7.91	0.074573786	3.7303053	0.035537048	-107.23195	0.035443071	-107.18465	0.093289055	-51.003242	
8.01	0.073499007	8.936206	0.03546341	-108.69575	0.035422605	-108.75965	0.087235804	-47.974343	
8.11	0.071803655	14.268333	0.035505175	-110.28452	0.035492914	-110.28092	0.077695445	-48.467663	
8.21	0.070469315	19.591026	0.03548797	-111.74256	0.03540635	-111.73596	0.071058778	-49.956576	
8.31	0.069383137	25.343676	0.03546887	-113.16671	0.035379147	-113.20091	0.066344128	-50.726956	
8.41	0.068201157	31.286404	0.035438889	-114.74091	0.035406264	-114.73431	0.058596979	-48.316133	
8.51	0.06705986	37.589346	0.03552578	-116.30977	0.03538699	-116.24667	0.047511219	-51.894616	
8.61	0.066096473	43.781665	0.035445302	-117.86669	0.035375996	-117.81919	0.041027379	-59.292751	
8.71	0.065360268	50.74865	0.035493723	-119.27356	0.035387636	-119.35806	0.035542699	-65.389575	
8.81	0.064599903	57.870156	0.035439491	-120.86956	0.035378342	-120.95366	0.02688056	-71.677233	
8.91	0.06372561	65.273489	0.035512975	-122.48928	0.035443537	-122.48768	0.022049019	-101.76525	
9.01	0.063371537	72.024428	0.035457241	-124.09942	0.035408288	-124.08172	0.025346978	-121.79332	
9.11	0.064932094	79.464018	0.035447187	-125.65816	0.035414554	-125.78156	0.030367109	-137.59832	
9.21	0.065186343	87.566892	0.0354162	-127.35743	0.035448835	-127.30843	0.034262452	-149.68602	
9.31	0.06746697	94.353074	0.035471138	-129.05677	0.035442563	-129.08617	0.046348041	-161.45625	
9.41	0.069903721	102.44547	0.035345232	-130.72414	0.035280184	-130.87624	0.056021973	-159.9803	
9.51	0.072858264	109.04042	0.035023003	-132.19291	0.035002847	-132.31191	0.06171862	-164.16133	
9.61	0.076255165	115.58469	0.034971825	-133.63828	0.034975851	-133.61268	0.072527485	-167.00118	
9.71	0.078951601	121.8994	0.03494397	-135.06714	0.034923861	-135.23304	0.083643012	-167.82591	
9.81	0.082164371	127.63706	0.034798017	-136.53823	0.034713987	-136.46063	0.092651076	-166.81303	
9.91	0.085989055	132.8668	0.034737836	-137.75898	0.034618063	-137.63138	0.099214667	-168.00145	
10.01	0.089693281	137.65486	0.034712615	-139.31166	0.034672673	-139.25186	0.10993529	-168.94484	
10.11	0.09425966	142.48747	0.03462575	-140.65694	0.034538159	-140.68684	0.1207952	-168.68147	
10.21	0.098322948	146.85189	0.034466579	-142.03897	0.034407108	-141.89307	0.12922356	-167.08523	
10.31	0.10274723	151.4017	0.034407494	-143.16138	0.034332311	-143.18248	0.13457892	-167.52088	
10.41	0.10669541	154.70508	0.034340424	-144.44794	0.034257499	-144.40194	0.14539247	-167.69242	
10.51	0.1120146	158.3189	0.034399688	-145.55251	0.034340333	-145.63971	0.15549564	-166.70054	
10.61	0.11621284	161.86512	0.034483648	-146.87304	0.034420185	-146.88504	0.1626426	-165.38786	
10.71	0.12053487	165.03035	0.03452931	-148.27666	0.0344737	-148.17496	0.16804699	-165.63818	
10.81	0.12483144	167.81992	0.034571686	-149.688	0.034456452	-149.7103	0.17840672	-165.35622	
10.91	0.12866566	170.64215	0.034637491	-151.18879	0.03451409	-151.10759	0.18584693	-163.99176	
11.01	0.13318606	173.03917	0.034539793	-152.53517	0.034492108	-152.51157	0.19063234	-163.01976	
11.11	0.13665525	175.66127	0.034518363	-153.87175	0.034458803	-153.89365	0.19459725	-162.92124	
11.21	0.13987705	177.64444	0.03453794	-155.29635	0.034395088	-155.22665	0.20230374	-162.6561	
11.31	0.14316037	179.56234	0.034536256	-156.55872	0.034508434	-156.59822	0.20711671	-161.5133	
11.41	0.14679715	-178.76336	0.034523678	-157.93705	0.03446411	-158.06665	0.20988512	-160.71331	
11.51	0.149702	-176.92517	0.034495305	-159.38119	0.034451647	-159.37609	0.21127224	-160.88973	
11.61	0.15251699	-175.67206	0.034515091	-160.75798	0.034400046	-160.65728	0.21806569	-161.09601	
11.71	0.15537723	-174.22547	0.034477112	-162.10704	0.034453304	-162.14884	0.22055693	-160.23041	
11.81	0.1580551	-173.03546	0.034486523	-163.50672	0.034335977	-163.47732	0.22216662	-160.3955	
11.91	0.16073871	-171.97284	0.034473023	-164.85893	0.034294886	-164.97533	0.22420977	-160.63131	
12.01	0.16362047	-171.04001	0.034407968	-166.48777	0.034265654	-166.40577	0.2293231	-160.96214	
12.11	0.1662841	-170.24731	0.034295904	-167.85378	0.034280113	-167.87998	0.23117722	-160.35853	
12.21	0.16933964	-169.58655	0.034291499	-169.19772	0.034271765	-169.38112	0.23218367	-160.99802	
12.31	0.1724262	-169.0928	0.034283708	-170.88469	0.0341655	-170.80129	0.23557491	-161.48628	
12.41	0.17563356	-169.02863	0.0339734	-172.62893	0.034028203	-172.63413	0.24109606	-161.92623	
12.51	0.17777709	-169.08125	0.033597342	-174.01623	0.033570276	-174.05353	0.24302623	-161.37915	
12.61	0.17946508	-168.71966	0.033252652	-174.73906	0.03322969	-174.65396	0.24402311	-162.38082	
12.71	0.18253912	-167.78378	0.033428574	-175.67167	0.033340173	-175.68767	0.24948155	-162.82267	
12.81	0.18574525	-167.26058	0.033539144	-176.81602	0.033500553	-176.79272	0.25431069	-163.10349	
12.91	0.19013397	-166.73672	0.03365416	-178.17284	0.033580623	-178.29794	0.2575073	-162.79076	
13.01	0.19398727	-166.40465	0.033707378	-179.50886	0.033629854	-179.49826	0.25979733	-163.61143	
13.11	0.19934354	-166.17709	0.033693176	178.94816	0.03363504	178.95616	0.26595134	-164.02937	
13.21	0.20411039	-165.83082	0.033684985	177.40229	0.033592039	177.42669	0.2704502	-164.20377	
13.31	0.20871603	-165.60428	0.033507258	175.99147	0.033491831	175.95727	0.27484403	-164.15199	
13.41	0.21402738	-165.34638	0.033419557	174.87071	0.033373418	174.69311	0.27825439	-164.73319	
13.51	0.21983833	-164.9038	0.03340453	173.56051	0.033346892	173.46961	0.28586242	-165.01122	
13.61	0.22579585	-164.62721	0.033407004	172.24295	0.033334007	172.20485	0.29179072	-164.86193	
13.71	0.23300974	-164.23948	0.03344393	170.86664	0.03334397	170.80434	0.29678224	-164.71077	
13.81	0.23967803	-163.59986	0.033392303	169.51558	0.03327717	169.48728	0.30190767	-165.05719	
13.91	0.24644701	-163.15945	0.033277145	168.15413	0.033250337	168.00983	0.31118961	-164.84226	
14.01	0.25423862	-162.66892	0.033210646	166.64122	0.033149526	166.63812	0.31639712	-164.26887	
14.11	0.26158271	-161.86166	0.033127461	165.40016	0.033093153	165.28926	0.32309682	-163.92684	
14.21	0.26845557	-161.1851	0.033070493	164.05215	0.033055267	163.98625	0.32891348	-163.72067	
14.31	0.27676698	-160.47182	0.033025476	162.71819	0.032930557	162.68099	0.33831218	-163.06686	
14.41	0.2844351	-159.59802	0.032910473	161.39124	0.032838561	161.49214	0.34267199	-162.18459	
14.51	0.29255723	-158.65692	0.032834724	160.13093	0.032785618	160.14193	0.34930864	-161.69394	
14.61	0.30051649	-157.65922	0.032728919	158.74824	0.032702553	158.75404	0.35475211	-160.94579	
14.71	0.30806676	-156.59072	0.03267661	157.51495	0.032608964	157.58145	0.36339982	-160.09225	
14.81	0.31564563	-155.6798	0.032580098	156.25324	0.032516395	156.19504	0.36738515	-158.75008	
14.91	0.32356885	-154.4065	0.032533038	154.89653	0.032398479	154.94443	0.37243304	-158.09055	
15.01	0.3297889	-153.29243	0.032381449	153.72562	0.032288381	153.58162	0.37767379	-156.99275	
15.11	0.33628908	-152.17187	0.032246954	152.57897	0.03214317	152.55007	0.3839008	-156.03456	
15.21	0.34250168	-150.99026	0.032154911	151.71374	0.03208465	151.67784	0.38745359	-154.42251	
15.31	0.34858376	-149.72909	0.032212689	150.59545	0.032231237	150.65435	0.39086945	-153.63407	
15.41	0.35396468	-148.57243	0.032309339	149.35644	0.032227608	149.36424	0.39593395	-152.25818	
15.51	0.35879574	-147.35431	0.032317219	148.17392	0.032246604	148.08602	0.39920516	-151.00679	
15.61	0.36124723	-146.01418	0.032270351	146.72111	0.032188719	146.69151	0.40093006	-149.37061	
15.71	0.36311827	-144.68181	0.032086403	145.47075	0.031997867	145.55815	0.40142851	-148.48751	
15.81	0.36651702	-143.14134	0.032047893	144.58672	0.031941072	144.56952	0.40540759	-147.08377	
15.91	0.36973745	-141.75525	0.032149872	143.45339	0.032105486	143.52949	0.40579199	-145.58234	
16.01	0.37026442	-140.42969	0.032165691	142.18753	0.032051096	142.21013	0.40494351	-144.12903	
16.11	0.36912273	-138.96657	0.031998805	140.73535	0.031914185	140.77845	0.40327216	-143.08188	
16.21	0.36857085	-137.14501	0.031663407	140.0241	0.031543338	140.0177	0.40501629	-141.68836	
16.31	0.37043971	-135.2949	0.0316652	139.79858	0.031577826	139.57148	0.40173866	-140.12701	
16.41	0.37146045	-133.64769	0.031902223	138.98258	0.031850844	139.16838	0.39798275	-138.94776	
16.51	0.37099363	-132.35811	0.032292245	138.21331	0.032180904	138.37911	0.39258161	-137.86679	
16.61	0.36944621	-131.35471	0.032647289	137.30111	0.03254971	137.19321	0.38941826	-136.91367	
16.71	0.36673947	-130.26676	0.032954243	136.1684	0.032931487	136.1856	0.38382645	-135.56228	
16.81	0.36099893	-129.27312	0.033542126	135.06411	0.033441873	134.99071	0.37653189	-134.56908	
16.91	0.35552915	-128.34788	0.033990037	133.22941	0.033950927	133.20281	0.36816781	-133.80331	
17.01	0.34725244	-127.5793	0.034260343	131.48045	0.034213043	131.59025	0.36122368	-133.06379	
17.11	0.33825616	-127.06413	0.034509981	130.03889	0.034533828	129.99179	0.35114747	-132.18219	
17.21	0.32632171	-126.85747	0.035028822	128.49958	0.034904028	128.53398	0.33980947	-131.56719	
17.31	0.31191408	-126.67789	0.035447791	126.60638	0.035415157	126.76437	0.32732761	-131.34955	
17.41	0.29333381	-126.57476	0.035999814	124.679	0.035941836	124.7178	0.31578	-131.18314	
17.51	0.27177706	-126.16391	0.036416	122.54534	0.036294621	122.43854	0.29948474	-131.19237	
17.61	0.25005993	-124.77228	0.036724204	120.16759	0.036698845	120.30039	0.28445897	-131.84198	
17.71	0.23248484	-123.26587	0.037289075	117.80698	0.037100658	117.78588	0.26802044	-132.71693	
17.81	0.21207201	-123.6907	0.03770627	114.53756	0.037554638	114.58586	0.25286689	-133.85174	
17.91	0.18853481	-122.70452	0.037014354	110.98284	0.037001571	110.92354	0.23183413	-135.01427	
18.01	0.16954416	-119.45811	0.035960682	108.85655	0.035956541	108.94915	0.21337093	-138.60416	
18.11	0.15946287	-119.1562	0.035565843	108.20248	0.035455462	108.18469	0.19562322	-141.48151	
18.21	0.14781495	-122.68056	0.035778197	106.86974	0.035745259	106.99423	0.17619274	-147.20408	
18.31	0.1309904	-128.61621	0.036138568	105.33226	0.036138561	105.32926	0.15816829	-152.85759	
18.41	0.11032523	-138.01471	0.036622704	103.47665	0.036610057	103.41785	0.14301482	-164.17306	
18.51	0.091279886	-149.98343	0.037355898	101.66475	0.03739893	101.78275	0.13964855	-173.14544	
18.61	0.080880372	-166.39969	0.038321973	99.037706	0.038159077	99.199406	0.13387435	174.93823	
18.71	0.081426463	175.18932	0.038954295	95.991633	0.038811046	95.925833	0.13601805	163.64147	
18.81	0.092297969	152.69398	0.039206104	92.390828	0.039070928	92.409929	0.14554119	149.67261	
18.91	0.11526188	136.54781	0.039273598	88.970914	0.039237443	89.034815	0.16578577	141.3084	
19.01	0.13894886	125.13285	0.039158958	85.802098	0.039131917	85.837794	0.18289371	133.50003	
19.11	0.16110752	116.20629	0.039025186	83.090069	0.038984768	82.958275	0.20697794	128.15151	
19.21	0.18483428	112.88104	0.039077368	80.038324	0.038924702	80.044924	0.22931991	123.33859	
19.31	0.21013116	111.93038	0.039091518	76.769355	0.03902856	76.690355	0.25762179	119.85435	
19.41	0.24004935	111.02739	0.038850237	73.462005	0.038711827	73.451405	0.28198669	117.25051	
19.51	0.27128262	109.66768	0.038295582	70.107406	0.038251518	70.015606	0.30925756	115.1077	
19.61	0.30258857	108.42754	0.037716084	66.73239	0.037685699	66.836684	0.33442157	113.99304	
19.71	0.33095727	107.28993	0.036816227	64.128819	0.036693512	63.949617	0.35736587	113.24686	
19.81	0.35692371	106.14444	0.035913154	62.082306	0.035917285	62.374491	0.37945885	112.09493	
19.91	0.37700012	105.94135	0.035590866	60.023982	0.035423267	60.17937	0.40423575	111.56918	
20.01	0.39504994	106.55563	0.034984656	58.327786	0.035182574	58.427386	0.4265268	111.45081	
