!
! Hittite Microwave Corporation
! 2 Elizabeth Drive
! Chelmsford, MA 01824
! http://www.hittite.com
! Tel: 978-250-3343
! Fax: 978-250-3373
! 
! Device:      HMC424LP3
! Description: 0.5 dB GaAs MMIC 6-Bit Digital Attenuator
! Frequency:    DC -  13.00 GHz
! Package:     LP3  - 3x3 mm Quad Flatpack No-Lead (QFN) Plastic Package: 16 pin
! Ports:       2 RF, 7 DC
!              Pad  1  = Ground
!              Pad  2  = RF IN   =  Port 1
!              Pad  3  = Ground
!              Pad  4  = V6
!              Pad  5  = V5
!              Pad  6  = V4
!              Pad  7  = V3
!              Pad  8  = V2
!              Pad  9  = V1
!              Pad 10  = Ground
!              Pad 11  = RF OUT  = Port 2
!              Pad 12  = Ground
!              Pad 15  = VEE
!
! Control:     -5 Volt control voltage
! State:        53 
! Attenuation:  26.5 dB
! Voltages:    Vdd = -5.00 Volts  Idd =  -2.518 mA
!              V1  = -5.00 Volts  I1  =  -1.0 uA
!              V2  = 0.00 Volts  I2  =  29.0 uA
!              V3  = -5.00 Volts  I3  =  -1.0 uA
!              V4  = 0.00 Volts  I4  =  30.0 uA
!              V5  = -5.00 Volts  I5  =  -1.0 uA
!              V6  = -5.00 Volts  I6  =  -1.0 uA
!
! Data:    The device was measured on evaluation board 105354-1. 
!          Data was collected using a calibrated network analyzer.
!          The evaluation circuit board was modeled and simulated.  This was use
!          to removed the evaluation board circuit from the measured data.
!          The reference plane is the edge of the package pin.
!
! Misc:    Lot xxxx, Unit 1
!          Application 20120001, Data collected in Application 20090083
!
! Date Measured:  2009-09-15
! Date:           2012-05-14  MJV
! Note: 
!   Hittite supplies this data as a sample of measured data at the package pin
!   for this product.  Your particular data for this product may vary.
!   Data was taken at 25 degrees C.
!   Hittite reserves the right to change this data at anytime.
!
# GHz S MA R 50

0.01	0.036858879	169.72808	0.037451071	-1.5548657	0.036814104	-2.0667657	0.043395339	7.8433118	
0.11	0.03862264	179.51329	0.03667215	-2.2557178	0.036537294	-1.7405178	0.039235477	0.5333205	
0.21	0.037846425	-179.65284	0.036640449	-3.3865588	0.036564597	-3.3575588	0.038501633	-7.70401	
0.31	0.036071123	-179.32994	0.036590603	-4.6137308	0.036569545	-4.6091308	0.043659638	-10.21793	
0.41	0.035427771	-178.69158	0.036526297	-6.0179904	0.036543122	-6.2038904	0.04443206	-11.045703	
0.51	0.033768737	-177.46172	0.036482248	-7.5598288	0.036373207	-7.5996288	0.043573493	-13.051605	
0.61	0.032876647	-175.63952	0.036504303	-8.8823143	0.036445512	-8.9427143	0.045079709	-19.730805	
0.71	0.03066064	-173.38607	0.036474824	-10.352933	0.03637418	-10.240533	0.051423164	-21.265916	
0.81	0.028974721	-171.92965	0.036383737	-11.589607	0.036362799	-11.466007	0.051280723	-20.039743	
0.91	0.02657315	-169.16151	0.036362455	-12.974779	0.036345713	-13.073579	0.052632379	-24.866755	
1.01	0.024651852	-168.42574	0.036273824	-14.363025	0.036282177	-14.343225	0.056098495	-28.275613	
1.11	0.022757572	-165.22445	0.036230156	-15.599913	0.036276068	-15.643513	0.062570004	-27.510724	
1.21	0.020729892	-163.82488	0.036272406	-17.031682	0.03626823	-16.946982	0.061281734	-25.917133	
1.31	0.018917816	-160.16226	0.036203754	-18.437246	0.036162097	-18.382746	0.063644783	-30.604829	
1.41	0.016521846	-158.21458	0.036238578	-19.74482	0.036171886	-19.74022	0.068370828	-30.979788	
1.51	0.015106756	-154.95621	0.036177446	-21.065487	0.036119182	-21.059387	0.072345013	-29.644128	
1.61	0.012797515	-150.01059	0.036168027	-22.346479	0.036118093	-22.342179	0.070575667	-28.542173	
1.71	0.011292775	-146.71033	0.036094518	-23.746101	0.036131937	-23.847701	0.07235152	-32.951591	
1.81	0.0096101068	-140.84999	0.036115249	-25.099548	0.036127725	-25.156848	0.076733705	-32.50988	
1.91	0.0081136478	-139.08882	0.036091758	-26.30013	0.03605438	-26.41593	0.077871518	-31.913907	
2.01	0.006959401	-133.70394	0.036036264	-27.805676	0.036032115	-27.773176	0.075705227	-31.993121	
2.11	0.0061121255	-130.1816	0.036049711	-29.048261	0.035946101	-29.101261	0.07764104	-36.424393	
2.21	0.00557581	-124.34211	0.036090398	-30.344125	0.035953541	-30.414025	0.082180488	-35.917543	
2.31	0.0050650992	-117.63369	0.035938595	-31.774048	0.035843556	-31.754248	0.081373596	-35.760176	
2.41	0.0049370783	-114.52929	0.035879008	-33.133723	0.035920339	-33.050223	0.079567399	-37.555218	
2.51	0.0048727856	-110.71728	0.035879598	-34.477189	0.03588786	-34.431089	0.082234923	-41.722737	
2.61	0.0049185925	-113.96088	0.035865694	-35.679987	0.035791446	-35.617887	0.086259491	-40.940832	
2.71	0.0054044165	-111.17799	0.035792916	-37.094965	0.035764082	-37.184165	0.083963772	-41.682292	
2.81	0.005512903	-120.90748	0.03574088	-38.415026	0.035736765	-38.480026	0.083380023	-44.429814	
2.91	0.0066307137	-116.84815	0.035731755	-39.676027	0.035723528	-39.775127	0.086507129	-47.839029	
3.01	0.0074945193	-121.59473	0.035696756	-40.998105	0.035635163	-41.095105	0.089830657	-47.130345	
3.11	0.0087782726	-122.24136	0.035706185	-42.399321	0.035652784	-42.451921	0.086462252	-48.31516	
3.21	0.0096361055	-125.92489	0.03558305	-43.783682	0.035599441	-43.719082	0.087113059	-52.019161	
3.31	0.011487259	-127.05121	0.035633637	-45.072469	0.035621332	-45.072269	0.090277105	-54.533851	
3.41	0.013192312	-128.91795	0.035568444	-46.345096	0.035560255	-46.377896	0.092461954	-54.19765	
3.51	0.015290846	-129.31991	0.035625431	-47.777413	0.035539403	-47.718513	0.088997603	-56.470219	
3.61	0.017511307	-130.25593	0.035495676	-49.047181	0.035495676	-49.067681	0.091406567	-60.97372	
3.71	0.019967884	-129.06057	0.035457181	-50.458566	0.035432696	-50.486866	0.095442793	-62.657337	
3.81	0.022289919	-128.21735	0.035455904	-51.824284	0.035362142	-51.748784	0.096305792	-62.885368	
3.91	0.024878674	-127.56633	0.035461888	-52.980163	0.035408853	-53.120163	0.093997435	-66.507812	
4.01	0.029750821	-114.14923	0.035370235	-54.348624	0.035321402	-54.456024	0.10634264	-68.323046	
4.11	0.031839929	-112.95872	0.03537553	-55.777207	0.035204887	-55.722107	0.11055846	-68.540507	
4.21	0.03417677	-111.9226	0.035268625	-57.022829	0.0352321	-57.132429	0.11158154	-68.936715	
4.31	0.036865504	-109.55543	0.035268989	-58.2961	0.035212188	-58.4511	0.11159271	-71.724272	
4.41	0.038673743	-107.54245	0.035210108	-59.683519	0.03524661	-59.824819	0.11872842	-73.429586	
4.51	0.040636617	-105.48714	0.035183687	-61.04864	0.035131068	-61.15894	0.12171804	-72.436946	
4.61	0.042758773	-103.62988	0.035123975	-62.35309	0.035035124	-62.49579	0.12230519	-72.682628	
4.71	0.045034132	-101.14095	0.035045266	-63.672309	0.035033164	-63.767209	0.12278037	-74.381606	
4.81	0.046787772	-99.009342	0.03508439	-65.058756	0.034975499	-65.145756	0.12980957	-75.222735	
4.91	0.049074713	-96.448403	0.034966943	-66.43142	0.034922688	-66.51922	0.13131962	-73.457108	
5.01	0.050827372	-94.15863	0.034957629	-67.726334	0.034913386	-67.701434	0.13060287	-73.938163	
5.11	0.053110587	-90.728488	0.034946337	-69.124252	0.034882022	-69.164152	0.13163756	-75.036547	
5.21	0.05461927	-88.327046	0.034893675	-70.425686	0.034841489	-70.403186	0.13751507	-75.496915	
5.31	0.056956893	-85.403511	0.034827833	-71.744811	0.034759734	-71.840611	0.13835176	-73.314019	
5.41	0.058669292	-82.108193	0.034785809	-73.162777	0.034745784	-73.107177	0.13693517	-74.15027	
5.51	0.060734993	-79.126071	0.03475057	-74.476756	0.03469061	-74.434156	0.13945368	-74.713508	
5.61	0.062734081	-75.454009	0.034657716	-75.841655	0.034633784	-75.844555	0.14410478	-74.559717	
5.71	0.064050474	-72.476496	0.034626956	-77.188642	0.03452346	-77.144142	0.14410609	-72.230599	
5.81	0.066240848	-68.555332	0.034589637	-78.438967	0.034490223	-78.538667	0.14176288	-72.813482	
5.91	0.067557292	-65.351372	0.034512968	-79.767587	0.034449452	-79.764387	0.14552135	-72.980047	
6.01	0.069646124	-61.701503	0.0344126	-81.15314	0.0344126	-81.18174	0.14903054	-71.632104	
6.11	0.071510243	-58.168515	0.03437959	-82.568612	0.034253164	-82.437912	0.14792354	-69.188275	
6.21	0.07352443	-53.888432	0.034281665	-83.721596	0.034265881	-83.795596	0.1444709	-69.426256	
6.31	0.07506244	-50.542914	0.034349061	-85.118813	0.034191242	-85.062013	0.14779062	-68.87931	
6.41	0.077465714	-46.241879	0.034208084	-86.354189	0.03416479	-86.421189	0.148573	-66.906252	
6.51	0.079068713	-42.203312	0.0342505	-87.729396	0.034159926	-87.691496	0.14622514	-64.328887	
6.61	0.080735954	-37.91745	0.03415646	-89.085871	0.034128945	-89.100971	0.1412036	-64.008684	
6.71	0.082244482	-34.277752	0.034226511	-90.470094	0.034088872	-90.474194	0.14284318	-63.320261	
6.81	0.084255966	-30.42354	0.034129298	-91.921149	0.034019455	-91.829849	0.14091086	-60.9025	
6.91	0.085812291	-26.373209	0.034097073	-93.262072	0.03400299	-93.328372	0.13696178	-58.909728	
7.01	0.087131326	-22.654316	0.03401299	-94.62896	0.033962122	-94.60016	0.13067314	-58.312301	
7.11	0.088750777	-18.981857	0.033980377	-96.049117	0.033953003	-96.180317	0.13114046	-58.153156	
7.21	0.089838445	-15.10796	0.033890526	-97.393652	0.033816473	-97.371452	0.12744473	-55.073198	
7.31	0.091278602	-11.123142	0.03387378	-98.726989	0.033811439	-98.852689	0.12103145	-54.080547	
7.41	0.092078311	-7.5585004	0.033949277	-100.10651	0.033855602	-100.03041	0.11535016	-54.039664	
7.51	0.093540962	-3.6406782	0.033868436	-101.51416	0.033887937	-101.49616	0.11427927	-54.062427	
7.61	0.093876516	-0.20528775	0.03389371	-102.92923	0.033796297	-102.95963	0.11011547	-51.041363	
7.71	0.094667531	3.5617853	0.033893818	-104.45878	0.033847025	-104.38748	0.10224309	-50.406799	
7.81	0.094532284	7.0476957	0.033921149	-105.94525	0.033874317	-105.89315	0.096270847	-50.661372	
7.91	0.094892569	10.590376	0.033850781	-107.2744	0.033792373	-107.3947	0.093256376	-50.941433	
8.01	0.094861193	14.253708	0.033822908	-108.88549	0.03378399	-108.84499	0.087191952	-47.966273	
8.11	0.093974083	17.948326	0.033865809	-110.38516	0.033752928	-110.31556	0.077680255	-48.412012	
8.21	0.093050247	21.603739	0.033814537	-111.84129	0.033651424	-111.90069	0.071042068	-49.802652	
8.31	0.09223428	25.431412	0.033731488	-113.33078	0.033739256	-113.35038	0.066322885	-50.639449	
8.41	0.090827367	29.43129	0.033759223	-114.77379	0.033662196	-114.77699	0.058537556	-48.089448	
8.51	0.089274382	33.607743	0.033764133	-116.29808	0.033736933	-116.32998	0.047445042	-51.943945	
8.61	0.087406657	37.695867	0.033788404	-117.84808	0.033757298	-117.95438	0.040962399	-59.242724	
8.71	0.085469614	42.384446	0.033803064	-119.32522	0.033721436	-119.39282	0.035545582	-65.173595	
8.81	0.082970825	47.305851	0.033827208	-120.91537	0.033714456	-120.95247	0.026782056	-71.439786	
8.91	0.080060973	52.267688	0.03384831	-122.53911	0.033793797	-122.50061	0.02193022	-101.62095	
9.01	0.07739228	57.134928	0.033865609	-124.11639	0.033779941	-124.12609	0.025332505	-122.0186	
9.11	0.075966104	62.939033	0.033851344	-125.72396	0.033730744	-125.66396	0.030201142	-137.62047	
9.21	0.072871065	69.324173	0.033853349	-127.32364	0.033759938	-127.42924	0.034118268	-149.72211	
9.31	0.071737767	75.563914	0.033837329	-129.10321	0.033732309	-129.04741	0.046080743	-161.50238	
9.41	0.070211855	83.561297	0.033700799	-130.92399	0.033665897	-130.86489	0.055893016	-160.14422	
9.51	0.06952354	90.59209	0.033432721	-132.3426	0.033405789	-132.381	0.061787282	-164.20525	
9.61	0.069241874	98.14559	0.033382673	-133.76468	0.03329056	-133.75728	0.072293116	-167.03611	
9.71	0.068622547	105.64753	0.033375592	-135.13524	0.033245203	-135.19874	0.083496659	-167.84646	
9.81	0.068878179	113.09045	0.033290979	-136.61864	0.033149469	-136.54924	0.092511494	-166.80521	
9.91	0.070028849	120.27139	0.033154675	-137.79246	0.033135595	-137.81306	0.099073668	-167.99608	
10.01	0.071575685	127.15217	0.033136055	-139.32769	0.033120798	-139.33309	0.10983439	-169.03099	
10.11	0.074384104	134.3295	0.033098549	-140.75708	0.033033832	-140.76158	0.12073007	-168.70545	
10.21	0.076951708	140.69241	0.032944425	-142.1234	0.032876224	-142.012	0.12907807	-167.13507	
10.31	0.080367178	147.2391	0.032844862	-143.33149	0.032844862	-143.24469	0.13436945	-167.52919	
10.41	0.083800105	152.17345	0.032796191	-144.45472	0.032762226	-144.50832	0.14530861	-167.65459	
10.51	0.088718772	157.4367	0.032939573	-145.62278	0.032826	-145.58058	0.15547529	-166.67471	
10.61	0.093020106	162.32777	0.033025128	-146.95635	0.033006122	-146.95755	0.16248914	-165.38152	
10.71	0.097389881	166.67975	0.033022304	-148.41879	0.032961531	-148.38609	0.16798354	-165.6344	
10.81	0.10212437	170.59851	0.033044691	-149.85497	0.033048495	-149.90447	0.17842609	-165.32943	
10.91	0.10657621	174.21966	0.033146613	-151.3865	0.033047542	-151.2105	0.18567051	-163.95468	
11.01	0.11154733	177.25727	0.033099375	-152.70577	0.033057484	-152.61137	0.19052516	-163.03334	
11.11	0.11596896	-179.33365	0.033089443	-153.96763	0.032986744	-154.04013	0.19447786	-162.92797	
11.21	0.11997422	-176.8644	0.033097762	-155.37182	0.033033047	-155.45882	0.2022387	-162.66631	
11.31	0.12419728	-174.55839	0.033073005	-156.87444	0.03301594	-156.82144	0.20712648	-161.55325	
11.41	0.12879005	-172.54408	0.033073485	-158.14893	0.033001217	-158.28213	0.20969108	-160.70456	
11.51	0.13283372	-170.39643	0.032992182	-159.58886	0.032961809	-159.59266	0.2112398	-160.90853	
11.61	0.1365723	-168.83661	0.033011592	-161.13063	0.032962221	-161.12933	0.21800552	-161.10359	
11.71	0.14037728	-167.24088	0.033041674	-162.42571	0.032954297	-162.48411	0.22039802	-160.21603	
11.81	0.14407578	-165.92639	0.033028738	-163.81762	0.032994532	-163.83582	0.22208394	-160.39246	
11.91	0.14787403	-164.79357	0.033049415	-165.32243	0.032931672	-165.44063	0.22409459	-160.65897	
12.01	0.15165179	-163.77527	0.032919947	-166.72202	0.032912368	-166.80682	0.22921039	-160.94712	
12.11	0.15544019	-162.87867	0.032951999	-168.19513	0.032842164	-168.26483	0.23116711	-160.37653	
12.21	0.15932761	-162.26804	0.032831962	-169.70504	0.032843304	-169.64224	0.23207522	-161.00785	
12.31	0.16338519	-161.80566	0.032791861	-171.35134	0.032716442	-171.43334	0.23560349	-161.4776	
12.41	0.16725652	-161.7779	0.032630666	-173.05542	0.032578114	-173.08172	0.24104404	-161.92741	
12.51	0.16997815	-161.8325	0.032199523	-174.40344	0.032110675	-174.48804	0.24296707	-161.35546	
12.61	0.17249108	-161.51392	0.031906531	-175.17389	0.031888169	-175.15019	0.24393204	-162.39988	
12.71	0.17665939	-160.61497	0.031989189	-175.99011	0.03195606	-176.00201	0.24943883	-162.79449	
12.81	0.18094255	-160.17097	0.032075939	-177.24454	0.032127681	-177.36754	0.25415206	-163.11767	
12.91	0.18624691	-159.76143	0.032237792	-178.65626	0.032148839	-178.64556	0.25746507	-162.78166	
13.01	0.19100211	-159.56297	0.032272022	179.8488	0.032208921	179.9229	0.25966415	-163.61858	
13.11	0.19718384	-159.49115	0.032286349	178.4559	0.032212093	178.3927	0.26582452	-164.01918	
13.21	0.20287981	-159.29024	0.032230628	176.90518	0.032204663	177.02278	0.27038908	-164.17884	
13.31	0.20836934	-159.22085	0.032118671	175.38697	0.032089102	175.43427	0.27474285	-164.1464	
13.41	0.21446981	-159.16913	0.032006904	174.25393	0.031907565	174.25873	0.27824381	-164.71555	
13.51	0.22119841	-158.90972	0.032000532	172.94212	0.031923257	173.01482	0.28594292	-165.01892	
13.61	0.22789777	-158.84504	0.032030373	171.64566	0.031956705	171.55476	0.29173411	-164.84124	
13.71	0.2360667	-158.67114	0.031944296	170.25939	0.031863488	170.23769	0.29664596	-164.67864	
13.81	0.24368461	-158.22691	0.031989266	168.88049	0.031919368	168.87339	0.30188531	-165.04867	
13.91	0.25126412	-158.00884	0.031881505	167.38202	0.031826495	167.52092	0.31120609	-164.80558	
14.01	0.2600527	-157.7494	0.031804476	165.9449	0.031760566	165.846	0.31637271	-164.25434	
14.11	0.26828586	-157.1695	0.031672614	164.72879	0.0316471	164.66019	0.32297594	-163.90518	
14.21	0.27601567	-156.69231	0.031633712	163.36935	0.031575494	163.39415	0.32893821	-163.71206	
14.31	0.28518877	-156.19862	0.031570657	162.03187	0.031490795	162.03187	0.33830075	-163.06504	
14.41	0.29378183	-155.543	0.031502354	160.72899	0.031382895	160.62499	0.34262305	-162.16984	
14.51	0.30281882	-154.81617	0.031430941	159.4291	0.031358652	159.4484	0.34939231	-161.66881	
14.61	0.31146733	-154.06682	0.03137339	158.04286	0.031308441	158.09266	0.35470862	-160.92784	
14.71	0.32009207	-153.19108	0.031234609	156.70464	0.031148424	156.75894	0.36344034	-160.08163	
14.81	0.32838194	-152.47253	0.031132415	155.3157	0.031096593	155.4112	0.36732853	-158.74224	
14.91	0.33711577	-151.41172	0.031102736	154.2676	0.030981225	154.179	0.37237407	-158.08186	
15.01	0.34423621	-150.48255	0.030919368	152.95095	0.030858912	152.99845	0.37762839	-156.97581	
15.11	0.35124379	-149.52327	0.030751778	151.8114	0.030652805	151.9384	0.3838835	-156.01654	
15.21	0.35812114	-148.50176	0.030699381	150.99549	0.030575926	151.07899	0.38747098	-154.4136	
15.31	0.36496392	-147.45794	0.030795132	149.91911	0.030688953	149.92501	0.3908901	-153.62423	
15.41	0.37081559	-146.46419	0.030813319	148.65946	0.030781408	148.62096	0.3957649	-152.23538	
15.51	0.37614881	-145.39806	0.03083834	147.44804	0.030756789	147.42184	0.39929949	-150.99515	
15.61	0.37933439	-144.2185	0.030760005	145.98064	0.030717538	145.82704	0.40086477	-149.35414	
15.71	0.38143612	-143.06138	0.030565494	144.71585	0.030572533	144.66275	0.40143708	-148.48067	
15.81	0.38542346	-141.60473	0.030569197	143.82288	0.03049889	143.91058	0.40537958	-147.07579	
15.91	0.38900613	-140.42993	0.030612462	142.83111	0.030531508	142.81861	0.40567673	-145.59531	
16.01	0.39003956	-139.23336	0.03067475	141.47493	0.03059011	141.51683	0.40497486	-144.11581	
16.11	0.38915089	-137.92088	0.0304556	140.02303	0.030420557	140.16673	0.4032807	-143.08447	
16.21	0.38893844	-136.26269	0.030097252	139.41025	0.03004532	139.36125	0.40498219	-141.67925	
16.31	0.39119893	-134.56104	0.030135126	139.05443	0.030062356	139.01713	0.40167674	-140.09111	
16.41	0.39252604	-133.10566	0.030353925	138.56784	0.030364411	138.59494	0.39799094	-138.92877	
16.51	0.39235137	-131.99502	0.03068504	137.67306	0.030660321	137.60516	0.39245749	-137.86402	
16.61	0.39096729	-131.13404	0.031059237	136.69119	0.031062813	136.78889	0.38948117	-136.90574	
16.71	0.38834113	-130.20438	0.031396284	135.63876	0.031370992	135.78106	0.38375964	-135.58165	
16.81	0.38267422	-129.41212	0.032012447	134.44329	0.031909417	134.41159	0.37639094	-134.54278	
16.91	0.37717788	-128.57261	0.032478509	132.80654	0.032407542	132.77664	0.36842148	-133.78354	
17.01	0.36906376	-127.96787	0.032744586	131.13891	0.032680561	131.06041	0.36124996	-133.06606	
17.11	0.35996078	-127.61701	0.032988143	129.61771	0.032946393	129.60581	0.35127241	-132.13795	
17.21	0.34788901	-127.62682	0.033492712	128.1649	0.033404139	128.107	0.33998342	-131.54088	
17.31	0.33337992	-127.63182	0.034014881	126.30941	0.033940558	126.398	0.32738931	-131.31801	
17.41	0.31432262	-127.7658	0.034537973	124.2677	0.034494262	124.21641	0.31572053	-131.14551	
17.51	0.2926875	-127.55533	0.034995516	122.05565	0.034818694	122.06146	0.29965668	-131.18486	
17.61	0.27073008	-126.50147	0.035330652	119.66828	0.035237221	119.78188	0.28473325	-131.84755	
17.71	0.25283497	-125.46952	0.035810107	117.14402	0.035649678	117.21762	0.26815556	-132.72113	
17.81	0.23218582	-126.28034	0.036242067	113.78672	0.036167039	113.91972	0.25302841	-133.80829	
17.91	0.20816058	-125.92437	0.035711469	110.2132	0.035543298	110.4023	0.23188442	-134.97865	
18.01	0.18846817	-123.577	0.034540035	107.90415	0.034540035	107.99715	0.2133116	-138.51895	
18.11	0.17816828	-123.86205	0.034052578	107.15898	0.03398991	107.28428	0.19559934	-141.43374	
18.21	0.16716501	-127.80088	0.034302516	106.09565	0.03410955	106.20384	0.17626455	-147.13748	
18.31	0.15097353	-133.91171	0.034611062	104.60061	0.034543384	104.65201	0.15815773	-152.8811	
18.41	0.13193907	-143.31609	0.035073529	102.85239	0.035008981	102.74959	0.14324197	-164.09877	
18.51	0.11437796	-154.526	0.035817661	101.05927	0.035850666	101.08097	0.13948269	-173.1253	
18.61	0.10512792	-168.44108	0.036787124	98.378357	0.036685617	98.487457	0.13384632	175.116	
18.71	0.10576561	176.58188	0.037277352	95.159659	0.037367587	95.200359	0.13592205	163.63094	
18.81	0.11515779	157.80181	0.037619524	91.506954	0.037541645	91.727953	0.14553265	149.72705	
18.91	0.13589778	142.64688	0.037767451	88.261002	0.037667582	88.117509	0.16568629	141.35784	
19.01	0.15745637	131.17684	0.037607107	84.952588	0.037542223	85.108478	0.18294253	133.58134	
19.11	0.17733527	122.00818	0.0374428	81.936022	0.037369589	82.062616	0.20682846	128.10247	
19.21	0.20059084	117.93236	0.037504562	78.993655	0.037396771	79.011755	0.22909778	123.40172	
19.31	0.22686816	116.24189	0.037536505	75.609421	0.037510584	75.694321	0.2576116	119.8735	
19.41	0.25725126	114.63032	0.037279961	72.165668	0.037168536	72.312968	0.28187175	117.23038	
19.51	0.28888401	112.63752	0.036723798	68.726771	0.0366309	68.846671	0.30905794	115.16629	
19.61	0.32031217	110.94372	0.036106744	65.654794	0.035961547	65.649499	0.33456518	114.01041	
19.71	0.34860416	109.43105	0.035187153	62.896571	0.035118355	63.010857	0.35724845	113.24754	
19.81	0.3745675	107.95838	0.034525186	61.156025	0.034358654	61.013224	0.37924964	112.11323	
19.91	0.39445961	107.57169	0.033937349	58.943364	0.033824235	58.965464	0.40431554	111.56232	
20.01	0.4126968	107.9096	0.033528744	57.310627	0.033671874	57.397527	0.42657583	111.50639	
