!
! Hittite Microwave Corporation
! 2 Elizabeth Drive
! Chelmsford, MA 01824
! http://www.hittite.com
! Tel: 978-250-3343
! Fax: 978-250-3373
! 
! Device:      HMC424LP3
! Description: 0.5 dB GaAs MMIC 6-Bit Digital Attenuator
! Frequency:    DC -  13.00 GHz
! Package:     LP3  - 3x3 mm Quad Flatpack No-Lead (QFN) Plastic Package: 16 pin
! Ports:       2 RF, 7 DC
!              Pad  1  = Ground
!              Pad  2  = RF IN   =  Port 1
!              Pad  3  = Ground
!              Pad  4  = V6
!              Pad  5  = V5
!              Pad  6  = V4
!              Pad  7  = V3
!              Pad  8  = V2
!              Pad  9  = V1
!              Pad 10  = Ground
!              Pad 11  = RF OUT  = Port 2
!              Pad 12  = Ground
!              Pad 15  = VEE
!
! Control:     -5 Volt control voltage
! State:        60 
! Attenuation:  30.0 dB
! Voltages:    Vdd = -5.00 Volts  Idd =  -2.513 mA
!              V1  = 0.00 Volts  I1  =  29.0 uA
!              V2  = 0.00 Volts  I2  =  29.0 uA
!              V3  = -5.00 Volts  I3  =  -1.0 uA
!              V4  = -5.00 Volts  I4  =  -1.0 uA
!              V5  = -5.00 Volts  I5  =  -1.0 uA
!              V6  = -5.00 Volts  I6  =  -1.0 uA
!
! Data:    The device was measured on evaluation board 105354-1. 
!          Data was collected using a calibrated network analyzer.
!          The evaluation circuit board was modeled and simulated.  This was use
!          to removed the evaluation board circuit from the measured data.
!          The reference plane is the edge of the package pin.
!
! Misc:    Lot xxxx, Unit 1
!          Application 20120001, Data collected in Application 20090083
!
! Date Measured:  2009-09-15
! Date:           2012-05-14  MJV
! Note: 
!   Hittite supplies this data as a sample of measured data at the package pin
!   for this product.  Your particular data for this product may vary.
!   Data was taken at 25 degrees C.
!   Hittite reserves the right to change this data at anytime.
!
# GHz S MA R 50

0.01	0.028044803	164.57519	0.024814997	-0.76040745	0.02544569	-2.6131074	0.042872612	8.968686	
0.11	0.031703843	179.36144	0.024100925	-1.9226957	0.024287551	-2.0920957	0.039282045	0.78936429	
0.21	0.031033892	-179.5675	0.024255335	-3.1506494	0.024415031	-2.8828494	0.038495094	-7.7508767	
0.31	0.029242974	-179.24397	0.02421671	-4.4050036	0.024116548	-4.5022036	0.043758235	-10.242311	
0.41	0.028580794	-178.31471	0.024143504	-5.9763277	0.024135167	-5.9219277	0.04443013	-10.896369	
0.51	0.026847887	-176.71466	0.024117065	-7.1728191	0.024086542	-7.1986191	0.04369447	-13.187142	
0.61	0.025985279	-174.2189	0.024142682	-8.5411292	0.024087155	-8.4887292	0.045128019	-19.739307	
0.71	0.023697263	-171.13861	0.024098114	-9.7284051	0.024062073	-9.7644051	0.051430298	-21.185437	
0.81	0.022057143	-169.22999	0.024043377	-10.964769	0.024015712	-11.012769	0.051285918	-19.99882	
0.91	0.019648703	-165.32626	0.024067969	-12.293537	0.024026441	-12.359737	0.052630904	-24.868842	
1.01	0.017751617	-163.3256	0.024022999	-13.647753	0.02398431	-13.730853	0.056077741	-28.141784	
1.11	0.015974333	-157.77163	0.023985632	-14.713691	0.02399668	-14.886991	0.062597133	-27.532817	
1.21	0.014049562	-154.67685	0.023985842	-16.019077	0.023991366	-16.021177	0.061361692	-25.893421	
1.31	0.012298463	-147.3472	0.024020349	-17.402997	0.023893474	-17.397497	0.063713283	-30.575746	
1.41	0.010188069	-140.83726	0.023902574	-18.769947	0.023894319	-18.712747	0.068355718	-30.966666	
1.51	0.0090267322	-132.00065	0.023906054	-19.916071	0.023917066	-19.860971	0.072436413	-29.673449	
1.61	0.0075707907	-116.56255	0.023899722	-21.131659	0.023921745	-21.180259	0.070553933	-28.524956	
1.71	0.0068339261	-104.0129	0.023897729	-22.524942	0.023878478	-22.551042	0.072344457	-32.935028	
1.81	0.006694056	-85.521452	0.023889248	-23.78967	0.023845283	-23.77917	0.076781635	-32.419944	
1.91	0.0062653248	-73.0578	0.023791276	-25.084584	0.02381594	-24.964484	0.077946188	-31.859581	
2.01	0.0066457675	-60.175679	0.023787392	-26.292576	0.023727218	-26.144676	0.075783219	-32.021406	
2.11	0.0070205542	-51.71146	0.023765994	-27.480343	0.023782416	-27.813143	0.077749931	-36.453995	
2.21	0.0076468478	-47.239862	0.023789984	-28.617363	0.023798202	-28.821563	0.08222168	-35.892926	
2.31	0.0082616624	-42.370175	0.023711624	-30.159972	0.023771758	-30.173372	0.081469343	-35.728963	
2.41	0.0086748112	-41.460141	0.023729496	-31.351318	0.023650402	-31.567518	0.079707355	-37.552835	
2.51	0.0091114564	-40.351539	0.023707997	-32.770255	0.023626254	-32.825155	0.082252927	-41.759286	
2.61	0.0091313893	-41.361679	0.02369323	-33.805044	0.023568083	-34.005644	0.086278124	-40.947888	
2.71	0.0097247992	-43.434328	0.02361511	-35.040584	0.023606955	-35.082684	0.083999492	-41.586868	
2.81	0.0091836282	-46.090549	0.02361868	-36.492702	0.023572499	-36.505002	0.083526401	-44.412682	
2.91	0.010056026	-51.648457	0.023555625	-37.738816	0.023585476	-37.759716	0.086496234	-47.765371	
3.01	0.010042387	-57.304293	0.023527043	-38.965001	0.023521626	-39.168401	0.089952868	-47.14919	
3.11	0.010868808	-64.034789	0.023495291	-40.300545	0.023476363	-40.109145	0.086481635	-48.303812	
3.21	0.011080864	-69.511168	0.023487087	-41.562144	0.023462763	-41.399144	0.087089837	-52.031565	
3.31	0.012205765	-77.128819	0.023531165	-42.798585	0.023506795	-42.791385	0.090319131	-54.468862	
3.41	0.013395006	-83.567222	0.023501494	-44.03983	0.023420463	-44.07753	0.092506674	-54.219709	
3.51	0.015120916	-89.430925	0.023414664	-45.405133	0.023382337	-45.207033	0.089056971	-56.496857	
3.61	0.017022316	-94.746475	0.023353325	-46.609495	0.023420639	-46.720295	0.091519954	-60.913099	
3.71	0.019537782	-97.598255	0.023386992	-47.897867	0.023422021	-47.872367	0.095364131	-62.600573	
3.81	0.021943971	-99.742751	0.0233508	-49.219904	0.023281007	-49.163004	0.096449188	-62.776604	
3.91	0.024583121	-101.6141	0.023303407	-50.452143	0.023276594	-50.543243	0.094072093	-66.452825	
4.01	0.031786691	-93.24476	0.023304381	-51.555514	0.023320485	-51.557414	0.10643959	-68.251714	
4.11	0.034251309	-93.703562	0.023272725	-52.997795	0.023232569	-52.990095	0.11056493	-68.536608	
4.21	0.037020933	-93.840823	0.023239238	-54.374581	0.023268688	-54.303281	0.11164467	-68.910982	
4.31	0.040325965	-92.712142	0.023254865	-55.371558	0.023105418	-55.479258	0.1116876	-71.661909	
4.41	0.04275636	-91.747154	0.023188817	-56.787265	0.023186147	-56.954165	0.11863674	-73.367001	
4.51	0.045343291	-90.578227	0.023133303	-58.106646	0.023112007	-57.900446	0.12177109	-72.405028	
4.61	0.048040519	-89.595503	0.023122542	-59.459278	0.023056086	-59.477178	0.12225746	-72.604475	
4.71	0.051095213	-87.96791	0.023101681	-60.616047	0.023077756	-60.643947	0.12279365	-74.3827	
4.81	0.053440807	-86.70097	0.023081405	-61.999735	0.023025668	-62.038235	0.12979001	-75.197294	
4.91	0.056556812	-85.039583	0.022989793	-63.271533	0.022936918	-63.283433	0.13140732	-73.476021	
5.01	0.058985189	-83.449804	0.022961425	-64.493443	0.022892796	-64.578843	0.13065159	-73.925595	
5.11	0.06216237	-81.207688	0.022963524	-65.798945	0.022952952	-65.854145	0.13173954	-75.018202	
5.21	0.06431282	-79.388122	0.022882952	-67.246346	0.022925143	-67.290646	0.13753011	-75.473004	
5.31	0.067417668	-77.362048	0.0228648	-68.364946	0.022851641	-68.455446	0.13849791	-73.311882	
5.41	0.069862283	-75.059925	0.022841467	-69.836115	0.022849357	-69.820515	0.13701275	-74.13329	
5.51	0.072655707	-72.911413	0.022769821	-71.129932	0.022754097	-71.063332	0.13957924	-74.704247	
5.61	0.075254145	-70.223971	0.022752551	-72.49504	0.022658445	-72.35364	0.14421294	-74.572246	
5.71	0.077246858	-67.925513	0.022610906	-73.538361	0.022681301	-73.545961	0.14426653	-72.242975	
5.81	0.079994535	-65.151748	0.022645736	-74.929951	0.022565057	-74.862751	0.14180259	-72.807494	
5.91	0.081801476	-62.756169	0.022557966	-76.09477	0.022563161	-76.32267	0.14569347	-72.952001	
6.01	0.08423051	-60.010896	0.022561843	-77.463412	0.022502179	-77.679412	0.14914927	-71.643101	
6.11	0.08638586	-57.413453	0.022446392	-78.604102	0.022368998	-78.725002	0.14800436	-69.175442	
6.21	0.08872287	-54.106244	0.022366191	-80.040249	0.022371342	-79.965549	0.14462008	-69.404351	
6.31	0.090340574	-51.611642	0.022371419	-81.130389	0.022384301	-81.218089	0.14784142	-68.859565	
6.41	0.092663135	-48.260747	0.022354139	-82.390371	0.022390199	-82.540271	0.14863681	-66.896066	
6.51	0.094064143	-45.129267	0.022361471	-83.689668	0.022251043	-83.604368	0.14629502	-64.307739	
6.61	0.095475635	-41.824788	0.022339242	-84.938187	0.022321246	-85.098687	0.14124666	-64.015893	
6.71	0.096572835	-38.872728	0.022198335	-86.212913	0.02225207	-86.122113	0.14294947	-63.354316	
6.81	0.098065863	-35.8242	0.022302503	-87.585295	0.022210259	-87.723095	0.14092114	-60.888028	
6.91	0.099026064	-32.544613	0.022213391	-89.096019	0.022164853	-89.043619	0.13700434	-58.911745	
7.01	0.099385537	-29.535914	0.022170831	-90.302798	0.022155521	-90.368798	0.13075823	-58.315791	
7.11	0.10010498	-26.447537	0.022123358	-91.794179	0.022131	-91.761679	0.13127316	-58.155393	
7.21	0.1001056	-23.232567	0.022092947	-93.061266	0.021988908	-92.889266	0.12750861	-55.108624	
7.31	0.10040239	-19.816017	0.02209472	-94.227531	0.021983078	-94.247131	0.12114474	-54.14229	
7.41	0.10010786	-16.726987	0.022105591	-95.555477	0.022047133	-95.400377	0.11538446	-54.044736	
7.51	0.099960726	-13.248964	0.022138279	-96.656566	0.022064488	-96.862266	0.11435335	-54.096789	
7.61	0.099008009	-10.196892	0.022142846	-98.042874	0.022091919	-98.133574	0.11014346	-51.08313	
7.71	0.098256402	-6.8423981	0.022062848	-99.473657	0.022047613	-99.618757	0.10224643	-50.436363	
7.81	0.096358302	-3.7252768	0.022092911	-101.04562	0.022014201	-101.08242	0.096235504	-50.636997	
7.91	0.095287979	-0.40948627	0.022055901	-102.33152	0.022017845	-102.64622	0.093198392	-50.903889	
8.01	0.09349608	3.034461	0.022039924	-103.9193	0.02203485	-103.838	0.087215095	-47.928109	
8.11	0.090897977	6.5751354	0.022069879	-105.34296	0.02195078	-105.37386	0.077741012	-48.359795	
8.21	0.088176625	10.092245	0.022016487	-106.74968	0.021920377	-106.66958	0.071088316	-49.801395	
8.31	0.085444724	13.987819	0.02203831	-108.15896	0.021916858	-108.11726	0.066379252	-50.546712	
8.41	0.082252575	18.060318	0.021967855	-109.31808	0.022008359	-109.42438	0.058554606	-48.063237	
8.51	0.07863724	22.480592	0.021979292	-111.00075	0.022027423	-110.90725	0.047464888	-51.882126	
8.61	0.075030669	26.950754	0.022058313	-112.333	0.022022788	-112.3978	0.04101952	-59.14056	
8.71	0.071184569	32.305754	0.022060622	-113.75808	0.022014952	-113.87078	0.035504088	-65.140333	
8.81	0.066963237	38.199412	0.022035272	-115.34157	0.021931504	-115.37897	0.026889873	-71.160143	
8.91	0.06246052	44.25772	0.022051705	-117.10995	0.022026332	-116.92115	0.021984278	-101.41819	
9.01	0.058439467	50.6012	0.022112513	-118.46493	0.021993184	-118.59683	0.025102364	-121.6691	
9.11	0.055892387	58.911522	0.022057513	-120.2322	0.022098182	-120.1469	0.030103955	-137.5068	
9.21	0.052106194	68.357892	0.022103901	-121.79005	0.021979557	-121.84875	0.034013767	-149.53351	
9.31	0.050892144	77.880406	0.022006201	-123.57253	0.022013803	-123.49353	0.046029902	-161.27099	
9.41	0.050110053	90.14979	0.021943238	-125.22736	0.02193061	-125.34846	0.055657381	-159.86168	
9.51	0.050883133	100.57141	0.021653818	-126.78746	0.021693742	-126.62966	0.061649359	-164.0492	
9.61	0.052817574	111.24993	0.021586528	-127.92146	0.021666202	-127.96646	0.072239833	-166.93082	
9.71	0.054938612	121.41081	0.021659027	-129.19545	0.0215025	-129.35705	0.083428464	-167.69419	
9.81	0.058226314	130.592	0.021487488	-130.69074	0.021366611	-130.76724	0.09248647	-166.5907	
9.91	0.06265342	138.3918	0.021473286	-131.54172	0.0214313	-131.52822	0.098941979	-167.92857	
10.01	0.067547659	145.33598	0.021464453	-133.08835	0.021390445	-133.04745	0.10961321	-168.89832	
10.11	0.073753743	151.82314	0.021368838	-134.5581	0.021361459	-134.6176	0.12068733	-168.61748	
10.21	0.079396092	157.28411	0.021278449	-135.52714	0.021241734	-135.58214	0.1289611	-167.01801	
10.31	0.086023197	162.62963	0.021143098	-136.66775	0.021165017	-136.72495	0.1344438	-167.40554	
10.41	0.09191418	166.29373	0.021124109	-137.76855	0.021165494	-137.66305	0.14529314	-167.5265	
10.51	0.099176458	170.07498	0.021311359	-138.53009	0.021223214	-138.69699	0.15541511	-166.61105	
10.61	0.10567674	173.73954	0.021320645	-139.75437	0.02143139	-139.94437	0.16250018	-165.30429	
10.71	0.11211359	176.84178	0.021458424	-141.22972	0.021401677	-141.29222	0.16793155	-165.54396	
10.81	0.11859058	179.54798	0.021500982	-142.50314	0.021496032	-142.66644	0.17831476	-165.24888	
10.91	0.12462069	-177.88718	0.021568193	-143.92455	0.021486405	-144.07745	0.18579173	-163.91521	
11.01	0.13112918	-175.80888	0.021544251	-145.46247	0.021514507	-145.23377	0.19056129	-162.89035	
11.11	0.13677516	-173.45355	0.021543504	-146.85752	0.021521193	-146.70372	0.19451601	-162.86134	
11.21	0.14176348	-171.76643	0.021541399	-148.04332	0.021536439	-148.01562	0.20221255	-162.5693	
11.31	0.14683108	-170.22625	0.021591361	-149.37929	0.021588875	-149.42149	0.20709808	-161.45101	
11.41	0.15223789	-168.95813	0.021530296	-150.74842	0.021535254	-150.68672	0.20979994	-160.61903	
11.51	0.15688094	-167.44145	0.021589845	-152.22385	0.02153771	-152.24205	0.21124525	-160.8493	
11.61	0.16121361	-166.51205	0.021550633	-153.55637	0.021471384	-153.43917	0.21810704	-161.02982	
11.71	0.16555656	-165.46957	0.021595251	-154.98227	0.021463882	-154.83077	0.22042427	-160.15938	
11.81	0.16954964	-164.70903	0.02156694	-156.41397	0.021455494	-156.30057	0.22224474	-160.30759	
11.91	0.17364651	-164.01149	0.021506559	-157.69366	0.021434874	-157.56746	0.2241952	-160.55419	
12.01	0.17745906	-163.43298	0.021478274	-159.09814	0.021391901	-158.99804	0.2294333	-160.88557	
12.11	0.18156724	-162.99578	0.021379987	-160.5641	0.021352928	-160.7233	0.23118552	-160.30106	
12.21	0.18561848	-162.70497	0.021331223	-161.99706	0.021296869	-162.05466	0.23227697	-160.9549	
12.31	0.18973716	-162.59314	0.02138089	-163.49072	0.021258166	-163.51982	0.23576011	-161.41293	
12.41	0.19351186	-162.85756	0.021077182	-165.53097	0.02105293	-165.47937	0.24120127	-161.89978	
12.51	0.19617835	-163.11714	0.020701175	-166.48704	0.020674975	-166.63564	0.24311674	-161.32742	
12.61	0.19872323	-163.04383	0.020495259	-166.69637	0.020485823	-166.71797	0.24412903	-162.31632	
12.71	0.20286738	-162.47709	0.020673706	-167.33168	0.02059531	-167.32058	0.24961122	-162.77764	
12.81	0.20702594	-162.28055	0.020875054	-168.48995	0.02077675	-168.31215	0.25424089	-163.06912	
12.91	0.2122789	-162.12917	0.02096863	-169.65085	0.020896331	-169.82315	0.25768594	-162.7563	
13.01	0.21684144	-162.17364	0.020975279	-171.21331	0.020934266	-171.26901	0.25996654	-163.57816	
13.11	0.2227526	-162.31384	0.020957519	-172.70807	0.020933404	-172.66177	0.26598131	-163.99172	
13.21	0.22809368	-162.28045	0.020931419	-174.19147	0.020924191	-174.09657	0.27053888	-164.16995	
13.31	0.23327678	-162.4072	0.02083537	-175.7368	0.020725319	-175.4452	0.2749791	-164.12001	
13.41	0.2391675	-162.4816	0.020747901	-176.49843	0.020724028	-176.34073	0.27839014	-164.69741	
13.51	0.24539351	-162.40169	0.020765502	-177.49125	0.020818164	-177.51045	0.28610913	-164.98619	
13.61	0.25165065	-162.42768	0.020874559	-178.87465	0.020797796	-178.78935	0.29195587	-164.83536	
13.71	0.25939324	-162.36059	0.02086117	179.92853	0.020815587	179.68573	0.29683174	-164.67247	
13.81	0.26634644	-162.04466	0.020806868	178.49622	0.02077575	178.43832	0.30222671	-165.03683	
13.91	0.27327373	-161.9215	0.0208085	177.26711	0.020763032	177.25161	0.31135609	-164.79997	
14.01	0.28131729	-161.72151	0.020780076	175.75852	0.020686982	175.79782	0.31664083	-164.25983	
14.11	0.28885329	-161.21249	0.020688051	174.56281	0.020649978	174.45461	0.32325796	-163.89179	
14.21	0.29574837	-160.80527	0.020599073	173.49332	0.020625177	173.26352	0.32911726	-163.72618	
14.31	0.30399708	-160.35724	0.020630645	172.16314	0.020559512	172.04514	0.33849115	-163.06721	
14.41	0.31170994	-159.76019	0.020649717	170.83662	0.020564308	170.90162	0.34284409	-162.18129	
14.51	0.31967128	-159.07265	0.020620989	169.58875	0.020568825	169.72325	0.34952785	-161.67792	
14.61	0.32737036	-158.32489	0.020617574	168.27194	0.020570155	168.47824	0.35496006	-160.94456	
14.71	0.33465161	-157.47484	0.020558716	167.23394	0.020561083	167.27864	0.36351884	-160.08982	
14.81	0.34185385	-156.76097	0.020537038	165.84993	0.020414456	165.94893	0.36752027	-158.74759	
14.91	0.34931933	-155.71556	0.020458077	164.71368	0.020439243	164.70278	0.37255734	-158.09254	
15.01	0.35505891	-154.79478	0.020486204	163.56278	0.020319428	163.53398	0.37783891	-157.01077	
15.11	0.36087827	-153.82867	0.020298043	162.53571	0.020258355	162.84491	0.38403042	-156.03073	
15.21	0.36633527	-152.82776	0.020326108	161.78461	0.020314411	161.75171	0.38756803	-154.44585	
15.31	0.37177305	-151.74389	0.020510091	160.85188	0.020415855	160.97788	0.39100594	-153.63682	
15.41	0.37626956	-150.72891	0.020596503	159.5812	0.020516037	159.7176	0.39591102	-152.24819	
15.51	0.38022056	-149.64101	0.020588256	158.24025	0.020529083	158.21265	0.3994413	-151.02068	
15.61	0.38201199	-148.4474	0.020571243	156.72939	0.020521568	156.69829	0.40105555	-149.36537	
15.71	0.38283627	-147.2515	0.020466405	155.56586	0.020400536	155.62656	0.40150765	-148.49654	
15.81	0.38530072	-145.81293	0.020339825	154.73914	0.020269694	154.83194	0.40558801	-147.0879	
15.91	0.3875658	-144.59842	0.020411587	153.83783	0.020486925	153.83113	0.40592275	-145.60073	
16.01	0.38713862	-143.38533	0.0205228	152.33414	0.02051099	152.38994	0.40497235	-144.12218	
16.11	0.38492536	-142.04429	0.020350855	151.03917	0.020287693	150.96567	0.40340694	-143.08378	
16.21	0.38327748	-140.36875	0.020076088	150.55256	0.01999075	150.66676	0.40506712	-141.70279	
16.31	0.38408127	-138.62814	0.020083467	150.7545	0.020090404	150.7218	0.40176189	-140.11707	
16.41	0.383724	-137.17929	0.020374728	150.43751	0.020365348	150.58091	0.39807939	-138.92391	
16.51	0.38220356	-136.02726	0.020721195	149.64614	0.020647372	149.73614	0.39258252	-137.8658	
16.61	0.37928836	-135.14286	0.021115987	148.66944	0.021045604	148.90454	0.38954551	-136.88972	
16.71	0.37521944	-134.1907	0.021343132	147.6252	0.021380022	147.837	0.3839736	-135.57384	
16.81	0.3680282	-133.36871	0.021965843	146.46203	0.021905233	146.53823	0.37659181	-134.53093	
16.91	0.36109052	-132.52174	0.022295836	144.47808	0.022267618	144.46628	0.36843876	-133.77689	
17.01	0.35149973	-131.93323	0.022542077	142.51239	0.022446257	142.74349	0.36138546	-133.02745	
17.11	0.34109672	-131.55664	0.022738859	141.26201	0.022678726	141.37331	0.35141617	-132.14357	
17.21	0.32797973	-131.52024	0.023114919	139.76899	0.023032572	139.75309	0.34019684	-131.53873	
17.31	0.3123342	-131.56301	0.023573997	138.02845	0.023573995	138.01656	0.32770929	-131.34592	
17.41	0.29235631	-131.75661	0.0240399	135.73252	0.023929443	135.84111	0.31592775	-131.14579	
17.51	0.27017813	-131.63127	0.024416851	133.24982	0.024366304	133.38331	0.30003007	-131.18964	
17.61	0.2477629	-130.67647	0.024780643	130.66137	0.024735037	130.57507	0.28487998	-131.87944	
17.71	0.22879053	-129.71111	0.025099	127.73919	0.025061463	127.74829	0.26845276	-132.72657	
17.81	0.20750756	-130.80701	0.025297138	123.98912	0.025233145	124.14892	0.25312989	-133.83565	
17.91	0.1830801	-130.70927	0.024612997	120.083	0.024564872	120.1056	0.2322972	-135.06449	
18.01	0.16201565	-128.48458	0.023512353	117.98184	0.023504234	118.06093	0.21346258	-138.54687	
18.11	0.15062659	-129.00954	0.023013224	118.39317	0.022960297	118.17197	0.19600853	-141.42685	
18.21	0.13884218	-133.75243	0.023263356	117.98596	0.023156471	118.02847	0.17653797	-147.16023	
18.31	0.12311989	-141.51627	0.023558752	117.02635	0.023491043	117.17955	0.15833301	-152.88211	
18.41	0.10583626	-153.67527	0.024091196	115.70817	0.024046859	115.83527	0.14343154	-164.08598	
18.51	0.0918521	-168.54582	0.024951997	114.06273	0.024923286	114.00583	0.13975994	-173.07559	
18.61	0.088667298	173.84186	0.025871672	111.17727	0.025830006	111.10637	0.13437301	175.07529	
18.71	0.09565734	158.07319	0.026307869	107.90449	0.026205091	107.81869	0.13638319	163.68102	
18.81	0.1129876	140.38616	0.026602523	104.27318	0.0265047	104.29339	0.14590795	149.71229	
18.91	0.13911278	128.40943	0.026757475	100.76275	0.026646807	100.64875	0.16610001	141.38375	
19.01	0.16393067	119.53062	0.026778011	97.74293	0.026747197	97.902929	0.18332284	133.62267	
19.11	0.18671554	112.12239	0.026803603	94.626564	0.026794349	94.652269	0.20704025	128.20124	
19.21	0.21012086	109.3718	0.02690105	91.489168	0.026829911	91.326968	0.22957593	123.34065	
19.31	0.23531196	108.52499	0.026979196	87.986448	0.026768806	87.888148	0.2580143	119.90855	
19.41	0.26446937	107.73498	0.026663271	84.622406	0.026638725	84.543106	0.28237997	117.27056	
19.51	0.29424521	106.48301	0.026228805	81.403158	0.026268091	81.128058	0.30985641	115.16685	
19.61	0.32432626	105.45183	0.02586515	78.130908	0.025725572	78.213204	0.33490157	113.99183	
19.71	0.35130606	104.4378	0.025238732	75.852595	0.025256167	75.674001	0.35757237	113.22358	
19.81	0.37615735	103.49478	0.024834647	74.007629	0.024868979	74.201519	0.37982973	112.04974	
19.91	0.39491876	103.41963	0.024667799	72.065505	0.024628071	72.131295	0.40457071	111.55534	
20.01	0.41198951	104.00186	0.024514294	70.536348	0.024483268	69.858048	0.42709087	111.474	
