!
! Hittite Microwave Corporation
! 2 Elizabeth Drive
! Chelmsford, MA 01824
! http://www.hittite.com
! Tel: 978-250-3343
! Fax: 978-250-3373
! 
! Device:      HMC424LP3
! Description: 0.5 dB GaAs MMIC 6-Bit Digital Attenuator
! Frequency:    DC -  13.00 GHz
! Package:     LP3  - 3x3 mm Quad Flatpack No-Lead (QFN) Plastic Package: 16 pin
! Ports:       2 RF, 7 DC
!              Pad  1  = Ground
!              Pad  2  = RF IN   =  Port 1
!              Pad  3  = Ground
!              Pad  4  = V6
!              Pad  5  = V5
!              Pad  6  = V4
!              Pad  7  = V3
!              Pad  8  = V2
!              Pad  9  = V1
!              Pad 10  = Ground
!              Pad 11  = RF OUT  = Port 2
!              Pad 12  = Ground
!              Pad 15  = VEE
!
! Control:     -5 Volt control voltage
! State:        59 
! Attenuation:  29.5 dB
! Voltages:    Vdd = -5.00 Volts  Idd =  -2.635 mA
!              V1  = -5.00 Volts  I1  =  -1.0 uA
!              V2  = -5.00 Volts  I2  =  -1.0 uA
!              V3  = 0.00 Volts  I3  =  29.0 uA
!              V4  = -5.00 Volts  I4  =  -1.0 uA
!              V5  = -5.00 Volts  I5  =  -1.0 uA
!              V6  = -5.00 Volts  I6  =  -1.0 uA
!
! Data:    The device was measured on evaluation board 105354-1. 
!          Data was collected using a calibrated network analyzer.
!          The evaluation circuit board was modeled and simulated.  This was use
!          to removed the evaluation board circuit from the measured data.
!          The reference plane is the edge of the package pin.
!
! Misc:    Lot xxxx, Unit 1
!          Application 20120001, Data collected in Application 20090083
!
! Date Measured:  2009-09-15
! Date:           2012-05-14  MJV
! Note: 
!   Hittite supplies this data as a sample of measured data at the package pin
!   for this product.  Your particular data for this product may vary.
!   Data was taken at 25 degrees C.
!   Hittite reserves the right to change this data at anytime.
!
# GHz S MA R 50

0.01	0.034943781	166.90703	0.025302558	1.1546097	0.027171551	-1.3602903	0.042425916	8.7213823	
0.11	0.037672957	179.67966	0.025902158	-2.070176	0.025700167	-2.325676	0.039240546	0.54530097	
0.21	0.036848266	179.93816	0.025778671	-3.0764965	0.025675004	-3.3579965	0.038586428	-7.5146495	
0.31	0.035327138	179.8586	0.025779203	-4.5384924	0.025657805	-4.7275924	0.043798958	-10.247735	
0.41	0.03446889	-179.5184	0.025648125	-5.8354419	0.025659939	-5.9228419	0.044518036	-10.91302	
0.51	0.032737088	-178.56714	0.025696941	-7.1922504	0.025590657	-7.2776504	0.043724647	-13.12287	
0.61	0.031783462	-177.09523	0.025620906	-8.5669281	0.025579643	-8.6065281	0.045123414	-19.684028	
0.71	0.029451415	-175.09096	0.025556055	-9.9016633	0.025585494	-9.6986633	0.051463314	-21.176092	
0.81	0.027691512	-173.9058	0.025589272	-11.039432	0.025480499	-11.028532	0.051336567	-20.00335	
0.91	0.025168719	-171.41811	0.025577256	-12.406329	0.025574312	-12.314129	0.052668567	-24.797747	
1.01	0.023137449	-171.06531	0.025523737	-13.821843	0.025482631	-13.752943	0.056098803	-28.120146	
1.11	0.021034667	-168.00033	0.025498853	-14.959945	0.025498853	-15.070345	0.062582195	-27.456752	
1.21	0.018846341	-167.06627	0.025528565	-16.457439	0.025472783	-16.335639	0.061302999	-25.945917	
1.31	0.016737252	-163.39356	0.025506601	-17.658677	0.025477253	-17.635077	0.063752655	-30.51996	
1.41	0.014253982	-161.87671	0.025507635	-18.934622	0.025405059	-18.980822	0.068353609	-30.952358	
1.51	0.012530788	-158.68301	0.025470398	-20.194403	0.02541767	-20.190103	0.072395922	-29.643408	
1.61	0.010060336	-153.52667	0.025534211	-21.477147	0.025399341	-21.503847	0.070544135	-28.506231	
1.71	0.0083209892	-149.53045	0.025394387	-22.784572	0.025353489	-22.770272	0.072303734	-32.88367	
1.81	0.0064019469	-141.29464	0.025295049	-23.912952	0.025335853	-24.158252	0.076748172	-32.492544	
1.91	0.0048899584	-137.50932	0.025403954	-25.281393	0.025307621	-25.363093	0.077961799	-31.876513	
2.01	0.0036636775	-123.90128	0.025344332	-26.63462	0.025288953	-26.67502	0.075838682	-31.981895	
2.11	0.0026581226	-110.92078	0.025295423	-27.781906	0.025272135	-27.981806	0.077711084	-36.44884	
2.21	0.0024794399	-89.211551	0.025268529	-29.101047	0.025288902	-29.205647	0.082245167	-35.905988	
2.31	0.0024995023	-70.519415	0.02528124	-30.542099	0.025289973	-30.552399	0.081499752	-35.726798	
2.41	0.0027442701	-60.060717	0.025169556	-31.595499	0.025178251	-31.577499	0.079744486	-37.549525	
2.51	0.0030050786	-50.996417	0.025259901	-32.997676	0.025152528	-33.041776	0.082347436	-41.664928	
2.61	0.002909616	-51.707354	0.025180393	-34.365146	0.025119588	-34.186446	0.086269079	-40.897959	
2.71	0.0035272831	-52.749719	0.025195783	-35.698327	0.025140729	-35.515227	0.084070335	-41.63024	
2.81	0.0031132846	-62.457251	0.025173541	-36.737945	0.02517644	-36.802445	0.083469935	-44.39651	
2.91	0.0041110588	-68.632224	0.025112067	-38.082523	0.025132313	-38.042423	0.086592125	-47.823327	
3.01	0.0044167085	-80.030447	0.025023961	-39.210733	0.02501244	-39.441133	0.089832776	-47.098837	
3.11	0.0054216663	-89.000262	0.025076672	-40.744501	0.025062241	-40.827701	0.086538875	-48.289378	
3.21	0.006061653	-96.960392	0.025073732	-41.922542	0.025041998	-41.931842	0.087114066	-52.023715	
3.31	0.0075176664	-103.09243	0.02497664	-43.25653	0.024939286	-43.10523	0.090310186	-54.459367	
3.41	0.0091941198	-108.81695	0.024922276	-44.604549	0.02491367	-44.434349	0.092466957	-54.148361	
3.51	0.011086016	-111.44136	0.025025423	-45.694053	0.024947753	-45.838153	0.089019484	-56.529865	
3.61	0.013160614	-114.84516	0.02495424	-47.116617	0.024919788	-46.898817	0.091517865	-60.920238	
3.71	0.015651914	-114.82445	0.024907037	-48.562371	0.024861199	-48.450271	0.095373262	-62.588709	
3.81	0.018125982	-114.93997	0.024923146	-49.627548	0.024825778	-49.719248	0.096383568	-62.789541	
3.91	0.020716983	-115.07002	0.024798379	-50.903557	0.024806945	-50.885857	0.094071503	-66.447509	
4.01	0.026948688	-102.12378	0.024819687	-52.11523	0.024854	-52.20133	0.1064329	-68.280564	
4.11	0.029196392	-101.33629	0.024863282	-53.34065	0.024760446	-53.64455	0.1106186	-68.568198	
4.21	0.03194414	-100.737	0.024773518	-54.665422	0.024762112	-54.723022	0.11166767	-68.938999	
4.31	0.03492348	-98.765397	0.024710733	-56.070805	0.024716424	-55.982005	0.11168254	-71.634224	
4.41	0.037150754	-96.931634	0.024720322	-57.43102	0.024646435	-57.58032	0.11870327	-73.354028	
4.51	0.039467109	-95.203381	0.024678652	-58.685981	0.024653095	-58.790681	0.12172636	-72.400809	
4.61	0.041964693	-93.712331	0.02462779	-59.99962	0.024605118	-60.08282	0.12227777	-72.60157	
4.71	0.044880314	-91.435419	0.024631486	-61.217375	0.024535257	-61.239075	0.12271231	-74.389655	
4.81	0.047078878	-89.526795	0.024550537	-62.614199	0.02453076	-62.657599	0.12988068	-75.170157	
4.91	0.049965531	-87.236763	0.024532498	-63.904763	0.024442283	-63.894063	0.1313841	-73.470512	
5.01	0.052236077	-85.333753	0.02448567	-65.219284	0.024491308	-65.195584	0.13067726	-73.894559	
5.11	0.05528182	-82.464352	0.024465656	-66.396861	0.02442063	-66.416161	0.13174232	-75.008835	
5.21	0.057402567	-80.255404	0.024447493	-67.807413	0.024394074	-67.685813	0.13754759	-75.460715	
5.31	0.060383005	-77.795577	0.024428497	-69.050139	0.024352679	-69.270939	0.1384568	-73.328748	
5.41	0.062710927	-74.981926	0.024313971	-70.493808	0.024353192	-70.449508	0.13698745	-74.12998	
5.51	0.065528783	-72.466692	0.024321767	-71.70373	0.024386256	-71.83223	0.13954469	-74.734593	
5.61	0.068202472	-69.335699	0.024264053	-72.974103	0.024224976	-73.026303	0.1441383	-74.538614	
5.71	0.070235404	-66.771045	0.024207641	-74.315074	0.024093643	-74.346474	0.14424308	-72.2138	
5.81	0.072990791	-63.577322	0.024172459	-75.612276	0.024155767	-75.456076	0.14182859	-72.804464	
5.91	0.074968097	-60.822314	0.024109076	-76.84041	0.024056396	-76.96651	0.14561698	-72.931505	
6.01	0.077613845	-57.803941	0.024004891	-78.229948	0.024040845	-78.263848	0.1491101	-71.626277	
6.11	0.079988296	-54.938991	0.02396989	-79.472912	0.023991978	-79.531412	0.14805766	-69.204046	
6.21	0.082580496	-51.264335	0.023903172	-80.671277	0.023878418	-80.583377	0.14457152	-69.437286	
6.31	0.084476331	-48.549572	0.023932861	-81.950754	0.023913581	-82.152754	0.14789295	-68.890439	
6.41	0.087166572	-44.984761	0.023930184	-83.334307	0.023833951	-83.179707	0.14865536	-66.892925	
6.51	0.089091627	-41.595587	0.023843355	-84.432822	0.023843355	-84.424222	0.14639348	-64.315701	
6.61	0.090883961	-38.04423	0.02383807	-85.775596	0.023772294	-85.966696	0.14128646	-64.012622	
6.71	0.092458384	-34.990276	0.023801507	-87.191671	0.023768647	-87.195671	0.14293029	-63.321869	
6.81	0.094349144	-31.746097	0.023816278	-88.561254	0.023756031	-88.488854	0.14091497	-60.911301	
6.91	0.095925476	-28.340548	0.023755291	-89.866175	0.023717033	-89.976375	0.13699986	-58.941076	
7.01	0.096927577	-25.192347	0.023694369	-91.137344	0.02366438	-91.434744	0.13069984	-58.304084	
7.11	0.098265578	-22.059185	0.023647481	-92.447987	0.023617552	-92.634687	0.13116866	-58.118541	
7.21	0.098884052	-18.688995	0.023585953	-93.810127	0.023556102	-93.838627	0.12756903	-55.0917	
7.31	0.099867338	-15.219263	0.023534698	-95.167608	0.023567235	-95.188708	0.12111375	-54.127329	
7.41	0.10017057	-12.066422	0.023666876	-96.277904	0.023574416	-96.308704	0.11543611	-54.056591	
7.51	0.10085093	-8.6039952	0.023601572	-97.685566	0.023574415	-97.551866	0.11431952	-54.079865	
7.61	0.10044078	-5.5912103	0.023631941	-99.021831	0.023612904	-99.214531	0.110135	-51.043358	
7.71	0.1003744	-2.29816	0.023577263	-100.71277	0.023585408	-100.53737	0.10220225	-50.400396	
7.81	0.099348591	0.84439069	0.023579694	-102.00327	0.02361773	-101.92267	0.096221084	-50.661854	
7.91	0.098834153	4.0504001	0.023581736	-103.44878	0.023603465	-103.37568	0.093279037	-50.912506	
8.01	0.0977614	7.3857628	0.023614292	-104.93211	0.023462535	-104.85381	0.087210926	-47.966607	
8.11	0.095778526	10.855314	0.023541156	-106.32629	0.023478903	-106.23249	0.077756323	-48.387772	
8.21	0.093665269	14.200956	0.023530884	-107.68212	0.023460553	-107.65552	0.071118054	-49.801336	
8.31	0.091682513	17.856715	0.023554802	-109.12504	0.023516867	-109.14864	0.066388768	-50.601508	
8.41	0.089118323	21.640251	0.023523119	-110.67916	0.023485235	-110.53466	0.058605377	-48.025772	
8.51	0.086069328	25.737696	0.023509442	-112.003	0.023444573	-112.059	0.047529311	-51.901321	
8.61	0.082954778	29.786173	0.023554276	-113.66002	0.023535302	-113.58702	0.041007518	-59.130627	
8.71	0.079589139	34.575446	0.02361482	-115.08679	0.023500908	-114.91229	0.035545944	-65.091894	
8.81	0.075691082	39.698793	0.023535162	-116.58343	0.023551425	-116.58383	0.026796303	-71.299167	
8.91	0.07145293	44.982709	0.023583775	-118.1047	0.023559351	-118.1557	0.022005652	-101.27875	
9.01	0.067617913	50.272799	0.023620662	-119.82688	0.023571763	-119.78478	0.02521043	-121.69209	
9.11	0.064772291	57.154299	0.023653718	-121.34807	0.023621062	-121.41717	0.030093685	-137.54585	
9.21	0.060609024	64.922875	0.023577462	-122.91025	0.023561181	-122.90355	0.033975707	-149.53698	
9.31	0.05865704	72.722779	0.023603185	-124.73627	0.023557034	-124.60767	0.046050133	-161.28407	
9.41	0.056733312	82.936438	0.023510927	-126.52931	0.023475765	-126.43501	0.055804143	-159.81678	
9.51	0.056170324	92.212861	0.023240576	-127.89826	0.023168446	-128.05926	0.061755956	-164.14625	
9.61	0.056268877	101.7666	0.023144453	-129.22809	0.0231125	-129.20879	0.072295103	-166.85226	
9.71	0.056460737	111.65549	0.023152927	-130.55985	0.023136939	-130.45505	0.08330496	-167.69721	
9.81	0.058023687	120.96638	0.023048692	-131.87871	0.023027474	-131.87161	0.092415546	-166.71977	
9.91	0.060680931	129.5091	0.022946008	-132.82664	0.022843211	-132.91794	0.098973692	-167.87997	
10.01	0.064033858	137.35601	0.022964258	-134.28282	0.022956327	-134.37592	0.10964303	-168.85211	
10.11	0.068852202	144.87287	0.022920476	-135.90914	0.022830931	-135.71554	0.12061384	-168.61289	
10.21	0.073439816	151.36043	0.022793885	-136.96461	0.022738842	-137.02471	0.12894213	-167.02483	
10.31	0.07893402	157.69922	0.022773134	-138.08646	0.02273384	-137.97936	0.13439931	-167.44668	
10.41	0.084010103	162.19766	0.022773772	-139.01482	0.0226848	-138.96612	0.14531836	-167.53507	
10.51	0.090813151	166.7355	0.02281417	-139.95954	0.022727657	-140.06014	0.15544679	-166.62382	
10.61	0.09678934	171.02016	0.022949471	-141.31846	0.022865077	-141.45106	0.16242754	-165.33006	
10.71	0.10268964	174.8088	0.023008567	-142.73662	0.022987385	-142.70752	0.16799318	-165.55051	
10.81	0.10892479	177.94799	0.023066738	-144.01463	0.023037544	-143.97293	0.17830392	-165.26236	
10.91	0.11462633	-179.03956	0.023099166	-145.37192	0.02306462	-145.54592	0.18579562	-163.91598	
11.01	0.12085397	-176.63114	0.023133403	-147.05987	0.023096147	-146.92737	0.19044488	-162.95649	
11.11	0.12631869	-173.90561	0.023136681	-148.30937	0.023115381	-148.25177	0.19456037	-162.8621	
11.21	0.13126595	-171.9574	0.023182647	-149.64154	0.023084104	-149.69554	0.20223855	-162.56317	
11.31	0.13629032	-170.12116	0.023221156	-150.85405	0.023141091	-150.91735	0.20718602	-161.45283	
11.41	0.1417981	-168.62323	0.023132489	-152.40093	0.023119177	-152.20493	0.20975794	-160.58727	
11.51	0.14632322	-166.94164	0.023092215	-153.74956	0.023108172	-153.91646	0.21118171	-160.8279	
11.61	0.15078931	-165.80657	0.023107098	-155.28236	0.02307254	-155.15126	0.21807422	-161.00519	
11.71	0.15504857	-164.61648	0.023101647	-156.52566	0.023040556	-156.53136	0.2204907	-160.15632	
11.81	0.15917486	-163.66836	0.023032233	-157.92776	0.023095962	-157.94916	0.22227493	-160.32242	
11.91	0.16327921	-162.88362	0.023054673	-159.35202	0.023086546	-159.45172	0.22418059	-160.59646	
12.01	0.16731402	-162.23972	0.023120249	-160.73264	0.022992835	-160.83334	0.22949017	-160.8957	
12.11	0.17149283	-161.68485	0.023015382	-162.3174	0.023041895	-162.4165	0.23123605	-160.28315	
12.21	0.17562554	-161.31094	0.022936602	-163.62625	0.022920763	-163.75625	0.23236263	-160.93725	
12.31	0.17976578	-161.14912	0.022992527	-165.36037	0.022868449	-165.45017	0.23566708	-161.40107	
12.41	0.18357902	-161.34521	0.022681441	-167.16735	0.022668388	-167.15595	0.24127972	-161.90577	
12.51	0.18627269	-161.57011	0.022302234	-168.42988	0.022250941	-168.41258	0.2430223	-161.33659	
12.61	0.18878072	-161.39773	0.022115734	-168.76921	0.022042019	-168.80791	0.24408948	-162.35041	
12.71	0.19319136	-160.73318	0.022216098	-169.28965	0.022210984	-169.47445	0.24961825	-162.77433	
12.81	0.19755491	-160.48449	0.022387791	-170.50678	0.02229776	-170.47528	0.25428754	-163.05854	
12.91	0.20300036	-160.28527	0.022502783	-171.93124	0.022401971	-171.81154	0.25770046	-162.74626	
13.01	0.2078344	-160.25887	0.022493464	-173.31774	0.022550509	-173.04644	0.2598787	-163.57368	
13.11	0.21388139	-160.39714	0.022573661	-174.69176	0.022464771	-174.66666	0.26599241	-163.99046	
13.21	0.21942047	-160.34241	0.022507527	-176.29015	0.022466105	-176.33945	0.27053722	-164.15633	
13.31	0.22472256	-160.43082	0.022338212	-177.69334	0.022330498	-177.59934	0.27486236	-164.11845	
13.41	0.23064122	-160.48941	0.022357638	-178.66215	0.022265165	-178.59295	0.27836784	-164.70133	
13.51	0.23726752	-160.39126	0.02236808	179.99976	0.02222689	-179.72514	0.28610624	-164.99685	
13.61	0.24377806	-160.42971	0.022394263	179.03841	0.022360771	179.03851	0.29192095	-164.85108	
13.71	0.25170829	-160.37596	0.022448465	177.47192	0.022425217	177.57302	0.29684079	-164.68978	
13.81	0.25902171	-160.03805	0.022378668	176.28825	0.022401868	176.27675	0.30213566	-165.03342	
13.91	0.26623138	-159.91643	0.022416752	174.95761	0.022321465	174.85931	0.3113906	-164.80086	
14.01	0.27467016	-159.72318	0.022329558	173.40109	0.022252567	173.50179	0.31664018	-164.26314	
14.11	0.28238842	-159.23173	0.022297544	172.18095	0.022279582	172.07835	0.32328614	-163.90807	
14.21	0.28971653	-158.8416	0.022221467	171.00118	0.022144849	170.87848	0.32910813	-163.71146	
14.31	0.29826777	-158.40292	0.022144777	169.66986	0.022111658	169.56346	0.33852718	-163.04628	
14.41	0.30640394	-157.79765	0.022171789	168.4754	0.022153928	168.2844	0.34282237	-162.18569	
14.51	0.31475342	-157.14446	0.022187907	167.13609	0.022085962	167.10099	0.3495249	-161.6839	
14.61	0.32282532	-156.40857	0.02212114	165.87515	0.022057562	165.62305	0.35499921	-160.92765	
14.71	0.33061547	-155.57432	0.02209142	164.64058	0.022033	164.64108	0.36354437	-160.09042	
14.81	0.33826911	-154.89444	0.022078317	163.30516	0.021979406	163.18926	0.36757105	-158.73278	
14.91	0.34614706	-153.86756	0.021953596	162.18324	0.02188294	161.92564	0.37256675	-158.0908	
15.01	0.35243232	-152.97373	0.021983595	160.97081	0.021844833	160.89391	0.37781794	-156.99906	
15.11	0.35853055	-152.01324	0.021817499	159.99795	0.021747281	159.81195	0.38404364	-156.04118	
15.21	0.36453751	-151.00096	0.021820734	159.13963	0.021712976	159.14433	0.38778876	-154.4326	
15.31	0.37047348	-149.96537	0.021976348	158.17454	0.021887972	158.08994	0.39100427	-153.63091	
15.41	0.37530099	-148.97046	0.022023456	156.79535	0.021970274	156.74765	0.39600877	-152.24231	
15.51	0.37978396	-147.90741	0.022007243	155.35779	0.022009776	155.45079	0.39944062	-151.00456	
15.61	0.38194055	-146.70169	0.022007376	153.86196	0.021939072	153.77496	0.40110043	-149.36775	
15.71	0.38321643	-145.50905	0.021794349	152.5976	0.021771778	152.6708	0.40166349	-148.47934	
15.81	0.38627406	-144.05824	0.02171756	151.91418	0.021670106	151.92478	0.4055555	-147.08036	
15.91	0.38902804	-142.87765	0.021828325	150.98874	0.021891243	151.00174	0.40584306	-145.59432	
16.01	0.38904221	-141.67863	0.021915512	149.44266	0.021857557	149.40666	0.40513118	-144.11969	
16.11	0.38730387	-140.30701	0.021758545	148.11341	0.021653587	147.96741	0.40338117	-143.09427	
16.21	0.38631783	-138.62116	0.021437729	147.652	0.021280351	147.5808	0.40506127	-141.68658	
16.31	0.38785651	-136.8995	0.021434319	147.5966	0.021357956	147.6323	0.4018538	-140.08966	
16.41	0.388246	-135.47395	0.021710964	147.15926	0.021576406	147.37936	0.39814822	-138.92367	
16.51	0.3870625	-134.35199	0.022066547	146.57502	0.022015796	146.53302	0.39269458	-137.86819	
16.61	0.38465449	-133.4734	0.022436879	145.59875	0.022305524	145.70435	0.38956145	-136.90112	
16.71	0.38106631	-132.56216	0.022706645	144.58389	0.022774716	144.63419	0.38403605	-135.5639	
16.81	0.37421285	-131.71513	0.023321454	143.51308	0.023219647	143.37588	0.37666413	-134.55511	
16.91	0.36801589	-130.91398	0.023698211	141.43384	0.023613783	141.44154	0.36854256	-133.79542	
17.01	0.35883088	-130.33427	0.023920815	139.55738	0.023769824	139.63558	0.3615614	-133.04496	
17.11	0.34848091	-129.94208	0.024126108	138.32474	0.024056767	138.25944	0.35132151	-132.14985	
17.21	0.33543765	-129.90088	0.024495528	136.72849	0.024444815	136.80399	0.34006869	-131.55082	
17.31	0.32014241	-129.87586	0.024991452	134.69817	0.024933975	134.92006	0.32755035	-131.31836	
17.41	0.30025933	-129.92276	0.02544985	132.60093	0.025268839	132.60492	0.31613101	-131.14627	
17.51	0.27810206	-129.61916	0.025799296	130.13641	0.025775543	130.22192	0.30001724	-131.1886	
17.61	0.25625048	-128.41802	0.026057525	127.48879	0.02609355	127.49789	0.28505032	-131.88779	
17.71	0.23817185	-127.31129	0.026478531	124.70373	0.026460247	124.74783	0.26844542	-132.74105	
17.81	0.217262	-128.13309	0.026635135	120.90378	0.026586116	121.14658	0.25341385	-133.85641	
17.91	0.19355658	-127.61069	0.025954373	117.04138	0.025906608	116.96358	0.23233041	-135.04391	
18.01	0.17444537	-125.20077	0.024791125	115.17459	0.02478542	115.23868	0.21368442	-138.62279	
18.11	0.16387919	-125.90277	0.024265497	115.18779	0.024167919	115.15519	0.19582659	-141.48785	
18.21	0.15244055	-130.2776	0.024478983	114.75368	0.024495893	115.06397	0.17660544	-147.18698	
18.31	0.13591581	-137.3367	0.024885179	113.68332	0.024793671	113.77761	0.15838278	-152.97484	
18.41	0.11720313	-147.91579	0.025362474	112.403	0.025257573	112.3666	0.1434107	-164.15201	
18.51	0.10105104	-160.77224	0.026211065	110.79267	0.026165839	110.92207	0.13989858	-173.14139	
18.61	0.0946591	-176.81929	0.027102817	107.92202	0.027096577	107.78372	0.13440819	175.14796	
18.71	0.098421884	167.32454	0.027663212	104.59818	0.027567832	104.58348	0.13641478	163.67694	
18.81	0.1119575	148.36592	0.027814639	100.94711	0.02779223	100.97161	0.14600126	149.72396	
18.91	0.13546525	134.64161	0.028010108	97.506034	0.027971434	97.61723	0.16637438	141.42895	
19.01	0.15853978	124.48012	0.028009816	94.504552	0.027893965	94.277967	0.18347035	133.60878	
19.11	0.17994857	116.37136	0.02802586	91.419313	0.028003282	91.434718	0.20760468	128.15874	
19.21	0.20321457	113.19699	0.028091766	88.108009	0.02798524	88.245509	0.22983068	123.41125	
19.31	0.22890645	111.96372	0.028067974	84.649693	0.02797764	84.780793	0.25834686	119.97441	
19.41	0.25912041	110.84079	0.027872405	81.348546	0.027782699	81.331946	0.28264543	117.2623	
19.51	0.28970829	109.20654	0.027489925	78.027326	0.027458294	78.147726	0.31008665	115.16756	
19.61	0.32025434	107.87583	0.026862692	74.850976	0.026881254	74.909868	0.33496248	114.02953	
19.71	0.3477556	106.65406	0.026313114	72.406358	0.026192219	72.556551	0.35816505	113.25226	
19.81	0.37253822	105.49918	0.025732773	70.955985	0.025703164	70.901795	0.3797563	112.09482	
19.91	0.39166673	105.29167	0.025504674	68.550015	0.025554638	69.058692	0.40477966	111.59026	
20.01	0.40938728	105.90036	0.025437151	66.969358	0.025302793	66.805158	0.42714322	111.52271	
