!
! Hittite Microwave Corporation
! 2 Elizabeth Drive
! Chelmsford, MA 01824
! http://www.hittite.com
! Tel: 978-250-3343
! Fax: 978-250-3373
! 
! Device:      HMC424LP3
! Description: 0.5 dB GaAs MMIC 6-Bit Digital Attenuator
! Frequency:    DC -  13.00 GHz
! Package:     LP3  - 3x3 mm Quad Flatpack No-Lead (QFN) Plastic Package: 16 pin
! Ports:       2 RF, 7 DC
!              Pad  1  = Ground
!              Pad  2  = RF IN   =  Port 1
!              Pad  3  = Ground
!              Pad  4  = V6
!              Pad  5  = V5
!              Pad  6  = V4
!              Pad  7  = V3
!              Pad  8  = V2
!              Pad  9  = V1
!              Pad 10  = Ground
!              Pad 11  = RF OUT  = Port 2
!              Pad 12  = Ground
!              Pad 15  = VEE
!
! Control:     -5 Volt control voltage
! State:        58 
! Attenuation:  29.0 dB
! Voltages:    Vdd = -5.00 Volts  Idd =  -2.514 mA
!              V1  = 0.00 Volts  I1  =  30.0 uA
!              V2  = -5.00 Volts  I2  =  -1.0 uA
!              V3  = 0.00 Volts  I3  =  29.0 uA
!              V4  = -5.00 Volts  I4  =  -1.0 uA
!              V5  = -5.00 Volts  I5  =  -1.0 uA
!              V6  = -5.00 Volts  I6  =  -1.0 uA
!
! Data:    The device was measured on evaluation board 105354-1. 
!          Data was collected using a calibrated network analyzer.
!          The evaluation circuit board was modeled and simulated.  This was use
!          to removed the evaluation board circuit from the measured data.
!          The reference plane is the edge of the package pin.
!
! Misc:    Lot xxxx, Unit 1
!          Application 20120001, Data collected in Application 20090083
!
! Date Measured:  2009-09-15
! Date:           2012-05-14  MJV
! Note: 
!   Hittite supplies this data as a sample of measured data at the package pin
!   for this product.  Your particular data for this product may vary.
!   Data was taken at 25 degrees C.
!   Hittite reserves the right to change this data at anytime.
!
# GHz S MA R 50

0.01	0.0097741386	140.53732	0.027638439	1.7463989	0.027721295	-3.3467011	0.042166809	7.7620162	
0.11	0.011252401	-176.55416	0.027200392	-2.3216128	0.027006927	-2.1492128	0.039168725	0.92194559	
0.21	0.010540524	-170.61629	0.027001987	-3.1380713	0.027214209	-3.1785713	0.038506459	-7.4135595	
0.31	0.0092999879	-162.39933	0.027011553	-4.593464	0.026912222	-4.639864	0.043741618	-10.216655	
0.41	0.0091716045	-153.39546	0.026982338	-5.9143195	0.026985444	-5.9568195	0.044447321	-11.021634	
0.51	0.0085061481	-140.44631	0.026961766	-7.4814939	0.026918344	-7.3373939	0.043741082	-13.14684	
0.61	0.0092308639	-129.30594	0.026949655	-8.5619262	0.026884577	-8.5684262	0.045157186	-19.66748	
0.71	0.0095847786	-111.9839	0.026883986	-9.8256112	0.026880891	-9.8364112	0.051510846	-21.137031	
0.81	0.01031081	-101.68022	0.026896666	-11.077202	0.026881188	-11.183302	0.051375251	-19.999897	
0.91	0.011590462	-87.857302	0.026933001	-12.571519	0.02688653	-12.477519	0.052702249	-24.856427	
1.01	0.012454398	-80.095136	0.026835851	-13.753924	0.026829672	-13.748624	0.056070415	-28.076532	
1.11	0.014445852	-73.576655	0.026846108	-15.030707	0.026765868	-15.086107	0.062682379	-27.474851	
1.21	0.015667197	-67.538856	0.026790283	-16.202945	0.026768701	-16.449445	0.061376574	-25.923357	
1.31	0.017664296	-63.307483	0.02676667	-17.632025	0.026677451	-17.625125	0.063782792	-30.500829	
1.41	0.019040813	-58.193404	0.026708732	-18.904217	0.026659578	-18.950117	0.068371798	-31.002919	
1.51	0.020581809	-55.938665	0.026718418	-20.199837	0.026660036	-20.223437	0.072458451	-29.612477	
1.61	0.022470485	-52.191675	0.026671021	-21.571884	0.026594366	-21.464284	0.070737121	-28.528949	
1.71	0.023701025	-50.006321	0.026696191	-22.781334	0.026720791	-22.715734	0.072417467	-32.882528	
1.81	0.025127165	-47.715541	0.026646673	-24.13654	0.026622142	-24.00054	0.076800717	-32.494291	
1.91	0.02574062	-46.10432	0.026671956	-25.401015	0.026537186	-25.424815	0.077972557	-31.823748	
2.01	0.026652114	-45.01073	0.026593907	-26.543898	0.026590846	-26.593198	0.07582885	-31.958142	
2.11	0.027163563	-44.374472	0.026582191	-27.978108	0.026460057	-28.005108	0.077769149	-36.416984	
2.21	0.028037457	-44.828882	0.02658446	-29.023196	0.026471456	-29.194996	0.082228938	-35.924494	
2.31	0.0287043	-44.832456	0.026518227	-30.439281	0.026542662	-30.490381	0.081562235	-35.735573	
2.41	0.028977011	-45.977499	0.026465106	-31.667728	0.026386005	-31.769428	0.079742714	-37.502017	
2.51	0.02938226	-46.861103	0.026502158	-32.966483	0.026450339	-32.914183	0.082275004	-41.707501	
2.61	0.029311084	-48.469055	0.026479658	-34.283451	0.02635496	-34.334451	0.086334664	-40.926056	
2.71	0.029833653	-50.408304	0.026392493	-35.529814	0.026237981	-35.679614	0.084037689	-41.596832	
2.81	0.029394851	-52.826447	0.026375327	-36.790454	0.026381401	-36.953054	0.083506626	-44.473422	
2.91	0.030281987	-55.702741	0.026399036	-38.14338	0.026359555	-38.17948	0.086539848	-47.853207	
3.01	0.030320483	-58.938145	0.026321543	-39.543887	0.026303367	-39.513687	0.089969821	-47.111006	
3.11	0.031090249	-62.478547	0.026301185	-40.750018	0.026213518	-40.684418	0.086560708	-48.329409	
3.21	0.031297315	-65.768499	0.026270812	-41.945199	0.026231523	-41.950599	0.087129129	-52.03221	
3.31	0.03233402	-69.773715	0.026274575	-43.373696	0.02622622	-43.349896	0.090368694	-54.469447	
3.41	0.033277878	-73.867701	0.026289742	-44.565542	0.02614185	-44.573042	0.092539327	-54.224434	
3.51	0.034894214	-77.851003	0.026126129	-45.893366	0.026132146	-46.054766	0.089044693	-56.516568	
3.61	0.036399204	-81.956191	0.026147607	-47.109927	0.026168688	-47.126427	0.09156199	-60.900225	
3.71	0.038765749	-85.086063	0.026121756	-48.440302	0.026013714	-48.430602	0.095396179	-62.61146	
3.81	0.041143183	-87.924684	0.026092991	-49.761954	0.026047969	-49.883654	0.096485	-62.826107	
3.91	0.043722313	-90.552553	0.026102632	-50.915282	0.026036601	-50.966482	0.094098123	-66.434657	
4.01	0.051713362	-87.967316	0.026055249	-52.17512	0.026028266	-52.31092	0.10648304	-68.269974	
4.11	0.054115572	-88.896826	0.026040229	-53.65808	0.025995298	-53.52928	0.11064117	-68.549821	
4.21	0.057019202	-89.990623	0.025924546	-54.896266	0.02594246	-54.759866	0.11170707	-68.938754	
4.31	0.060332902	-90.143092	0.025971471	-56.040789	0.025881924	-56.127389	0.11166357	-71.703018	
4.41	0.062776879	-90.122641	0.025906057	-57.651893	0.025876249	-57.469293	0.11872442	-73.387045	
4.51	0.065411727	-89.984583	0.025846539	-58.804546	0.025852491	-58.837446	0.12186424	-72.409361	
4.61	0.06808066	-89.948965	0.025884826	-60.0783	0.025748103	-59.9812	0.12232056	-72.628963	
4.71	0.071117377	-89.303064	0.025766065	-61.291286	0.025757167	-61.209586	0.12276705	-74.383346	
4.81	0.07346141	-88.792113	0.025778563	-62.731952	0.025742973	-62.649052	0.12992465	-75.195092	
4.91	0.076376115	-88.003826	0.025774	-63.81871	0.025631961	-63.92301	0.13143564	-73.454222	
5.01	0.078444156	-87.213183	0.025650651	-65.172991	0.025680199	-65.036391	0.13075927	-73.946021	
5.11	0.081417882	-85.816514	0.025688591	-66.427434	0.025629509	-66.293034	0.13180981	-75.007052	
5.21	0.083195683	-84.815936	0.025684553	-67.77204	0.02558421	-67.74614	0.13760457	-75.428221	
5.31	0.085768543	-83.457533	0.025561822	-69.122085	0.025517717	-69.235785	0.13854608	-73.318969	
5.41	0.087652626	-81.783686	0.025554157	-70.416771	0.025504192	-70.380971	0.13701086	-74.127046	
5.51	0.089759246	-80.279111	0.025472373	-71.627622	0.025428422	-71.782022	0.13961291	-74.726153	
5.61	0.091617566	-78.191891	0.02540446	-72.90893	0.025354787	-73.02023	0.1442126	-74.552615	
5.71	0.092770184	-76.539006	0.025417378	-74.266513	0.025332657	-74.223113	0.14419268	-72.219405	
5.81	0.094337423	-74.277871	0.025344687	-75.462986	0.025280574	-75.426186	0.14184784	-72.848761	
5.91	0.095211655	-72.405775	0.025271893	-76.838525	0.025254442	-76.812425	0.14567972	-72.944886	
6.01	0.096511058	-70.128763	0.025243913	-78.040626	0.025203258	-78.071826	0.14913919	-71.633542	
6.11	0.09741326	-67.868358	0.025172463	-79.313263	0.025198559	-79.410063	0.14805071	-69.168525	
6.21	0.098230108	-64.914567	0.025163838	-80.64294	0.025088627	-80.73194	0.14463083	-69.418685	
6.31	0.098455641	-62.757221	0.025153151	-81.707633	0.025046231	-81.719033	0.14785895	-68.896946	
6.41	0.099069479	-59.635863	0.025064879	-83.000831	0.024969831	-83.130131	0.14868776	-66.87448	
6.51	0.098846757	-56.673956	0.025071263	-84.414939	0.024996328	-84.419039	0.14633123	-64.342087	
6.61	0.098418255	-53.534185	0.025087989	-85.670647	0.024989977	-85.608947	0.1413017	-64.03442	
6.71	0.097767689	-50.673191	0.025101255	-86.844637	0.024922719	-86.892237	0.1428912	-63.35839	
6.81	0.097490399	-47.574491	0.024957661	-88.40857	0.024905994	-88.29877	0.14092418	-60.906148	
6.91	0.096524589	-44.214526	0.024948516	-89.613041	0.024894002	-89.662241	0.13700894	-58.929004	
7.01	0.095250535	-41.088578	0.024896318	-91.010308	0.024836198	-91.055908	0.13075074	-58.337369	
7.11	0.094138381	-37.746255	0.02487048	-92.403662	0.024833284	-92.311862	0.13122854	-58.166816	
7.21	0.092370792	-34.257082	0.024843357	-93.528651	0.024771955	-93.646751	0.12759455	-55.127639	
7.31	0.090842801	-30.399751	0.024801151	-94.877148	0.02474411	-94.945248	0.1211734	-54.149072	
7.41	0.088848988	-26.833709	0.024857647	-96.240355	0.024780497	-96.242055	0.11542278	-54.042953	
7.51	0.087156149	-22.74492	0.024832268	-97.388973	0.024786568	-97.711073	0.11438847	-54.088522	
7.61	0.084802908	-19.046996	0.024778114	-98.829094	0.024800946	-99.027994	0.11014636	-51.066345	
7.71	0.082608538	-14.890475	0.024863477	-100.35587	0.024846308	-100.28477	0.10227506	-50.450718	
7.81	0.079709098	-10.987904	0.024808291	-101.86737	0.024762635	-101.97697	0.096309618	-50.665811	
7.91	0.077443132	-6.5564502	0.024866821	-103.41702	0.024783936	-103.16592	0.093221005	-50.9247	
8.01	0.074735462	-1.9152483	0.024813802	-104.74582	0.024796667	-104.68812	0.087249334	-47.95007	
8.11	0.0713874	2.9244422	0.024832388	-106.14743	0.024738222	-106.28323	0.077747007	-48.404396	
8.21	0.068173978	7.8637227	0.024770797	-107.56915	0.024765094	-107.68765	0.071055426	-49.845396	
8.31	0.065281509	13.50863	0.024827121	-109.11657	0.024681773	-109.13767	0.066392915	-50.604257	
8.41	0.062063059	19.58156	0.024796634	-110.43374	0.02469976	-110.45294	0.058624409	-48.139413	
8.51	0.058946233	26.343495	0.024771458	-112.0579	0.024760053	-112.0412	0.047528428	-51.932528	
8.61	0.056131258	33.324793	0.02483648	-113.59537	0.024719521	-113.49337	0.041045549	-59.182252	
8.71	0.053634337	41.6399	0.024826031	-114.94464	0.024814601	-114.94784	0.035552853	-65.248919	
8.81	0.051209589	50.671166	0.024830243	-116.51567	0.024767432	-116.45747	0.026964758	-71.485724	
8.91	0.049191462	60.376984	0.024877272	-118.0736	0.024862956	-118.1606	0.022124979	-101.49012	
9.01	0.048130619	69.685202	0.024824823	-119.71396	0.02479055	-119.73866	0.025294064	-121.66621	
9.11	0.049340136	80.179361	0.024813109	-121.19067	0.024744643	-121.29217	0.030198418	-137.48006	
9.21	0.049961876	91.530836	0.024829876	-122.86824	0.024807017	-122.90474	0.03414766	-149.57056	
9.31	0.052983557	100.61243	0.024888584	-124.68807	0.024734333	-124.62977	0.046092054	-161.36455	
9.41	0.057101589	110.92516	0.02468908	-126.42077	0.024697609	-126.43827	0.055741268	-159.78864	
9.51	0.06157645	118.63098	0.024432936	-127.8921	0.024416064	-127.8926	0.0617058	-164.15023	
9.61	0.066636251	125.90074	0.024353937	-129.20226	0.024297925	-129.16656	0.072282944	-166.90798	
9.71	0.071373501	132.77939	0.024423633	-130.45907	0.024258295	-130.35907	0.083469368	-167.7461	
9.81	0.076600707	138.66888	0.024208736	-131.81261	0.024147497	-131.99701	0.092459132	-166.68001	
9.91	0.082276641	143.73547	0.024134392	-132.78327	0.024128835	-132.86847	0.099012319	-167.90223	
10.01	0.087847121	148.24235	0.024198197	-134.48019	0.024114764	-134.33659	0.10972798	-168.84863	
10.11	0.094337642	152.63695	0.023980191	-135.64196	0.024027171	-135.85066	0.12062095	-168.61	
10.21	0.10013331	156.50428	0.023977457	-136.97736	0.023944354	-136.87896	0.12915383	-166.99728	
10.31	0.10649167	160.46068	0.023905276	-138.06114	0.023864029	-137.92944	0.13452053	-167.43935	
10.41	0.11185468	163.17419	0.023876618	-139.0017	0.023813477	-139.0169	0.14542607	-167.59059	
10.51	0.11859786	166.16988	0.023976845	-139.98733	0.02393823	-140.02403	0.15550783	-166.62861	
10.61	0.12427497	169.17996	0.024081045	-141.3174	0.024131001	-141.5484	0.16261961	-165.29162	
10.71	0.12981601	171.7218	0.024187422	-142.81877	0.024070748	-142.64297	0.1680613	-165.58035	
10.81	0.13535883	174.04682	0.024157134	-143.97004	0.024151572	-144.05634	0.17849242	-165.26596	
10.91	0.14054882	176.27669	0.024218389	-145.52561	0.024171035	-145.56181	0.18590046	-163.92136	
11.01	0.14580346	178.14164	0.024229538	-146.87608	0.024162681	-146.74898	0.19054893	-162.94165	
11.11	0.1503604	-179.7221	0.024213217	-148.18881	0.024174221	-148.20111	0.19462028	-162.86735	
11.21	0.15439139	-178.1657	0.024175461	-149.46777	0.024117083	-149.57847	0.20217331	-162.57134	
11.31	0.15843039	-176.76205	0.024203906	-151.00903	0.024134342	-150.90423	0.20716168	-161.49639	
11.41	0.16270395	-175.45303	0.02423381	-152.19419	0.024172508	-152.24099	0.20980886	-160.58998	
11.51	0.16622686	-174.06495	0.024234575	-153.67849	0.024126005	-153.58519	0.21130516	-160.85893	
11.61	0.1695906	-173.11857	0.024238224	-155.18238	0.024182477	-155.02258	0.21806447	-161.0343	
11.71	0.17290621	-172.0967	0.024182953	-156.19928	0.024149566	-156.16448	0.2205549	-160.14934	
11.81	0.17609341	-171.21724	0.024205673	-157.76611	0.024122214	-157.67991	0.22224216	-160.34199	
11.91	0.17910903	-170.54907	0.024150413	-159.1361	0.024119848	-158.9344	0.22439256	-160.55694	
12.01	0.1820223	-169.93242	0.024189931	-160.49895	0.024026175	-160.59115	0.22943897	-160.90772	
12.11	0.18514219	-169.4467	0.024121107	-161.93811	0.024057319	-162.08311	0.23119385	-160.29778	
12.21	0.1882972	-169.0898	0.024110885	-163.2784	0.02397525	-163.3426	0.23229904	-160.95684	
12.31	0.19162907	-168.89599	0.024046168	-165.06917	0.024015735	-165.01007	0.23572205	-161.40889	
12.41	0.19465209	-169.02566	0.023780583	-166.78294	0.023701318	-166.90714	0.24135325	-161.90819	
12.51	0.19666478	-169.22493	0.023348538	-168.08426	0.023318987	-168.08146	0.24314691	-161.31117	
12.61	0.19836975	-169.07655	0.023190565	-168.24477	0.023161214	-168.32267	0.24418281	-162.3704	
12.71	0.20159123	-168.39842	0.023294901	-168.97997	0.023292219	-169.07667	0.24969644	-162.77051	
12.81	0.20492916	-168.11423	0.023508896	-170.14125	0.023444028	-170.07745	0.25429704	-163.10244	
12.91	0.20928296	-167.78736	0.023623114	-171.26851	0.023544374	-171.41901	0.25762364	-162.75443	
13.01	0.21310011	-167.68514	0.023568583	-172.85644	0.02360932	-172.99234	0.2599474	-163.55326	
13.11	0.21828187	-167.61588	0.023687662	-174.323	0.023589688	-174.3494	0.26610834	-163.99473	
13.21	0.22298092	-167.43056	0.023610099	-175.72104	0.023585648	-175.93204	0.27059792	-164.17026	
13.31	0.22738761	-167.39587	0.023465955	-177.15984	0.023495692	-177.29884	0.27493217	-164.12803	
13.41	0.23253674	-167.30693	0.023414879	-178.15319	0.023309981	-178.21889	0.27851866	-164.69925	
13.51	0.23798159	-167.00415	0.023464971	-179.39107	0.023370609	-179.30807	0.28611362	-164.98602	
13.61	0.24365187	-166.87543	0.023498074	179.39505	0.023438632	179.40235	0.29200529	-164.83588	
13.71	0.25041306	-166.60939	0.023521884	177.96198	0.02345428	178.02148	0.2968865	-164.6763	
13.81	0.25664529	-166.07455	0.023526369	176.68395	0.023456051	176.60815	0.30216574	-165.03253	
13.91	0.26297879	-165.77405	0.023462917	175.3996	0.02340087	175.3945	0.31145163	-164.78109	
14.01	0.27021803	-165.35833	0.023402045	173.9199	0.023402045	173.8743	0.31670796	-164.2617	
14.11	0.27700392	-164.66425	0.023405978	172.63706	0.023317221	172.65436	0.3233446	-163.91777	
14.21	0.28322253	-164.07656	0.023337825	171.45982	0.023225249	171.54562	0.32915969	-163.71267	
14.31	0.29074647	-163.42081	0.023284783	170.16679	0.023260669	170.12929	0.33856303	-163.07009	
14.41	0.2977196	-162.60786	0.023244192	168.94127	0.023188062	168.98037	0.34293442	-162.20046	
14.51	0.30507874	-161.74036	0.023237491	167.73952	0.023160036	167.70312	0.34955618	-161.69369	
14.61	0.3121236	-160.79492	0.02322411	166.44414	0.023106761	166.39604	0.35493191	-160.949	
14.71	0.31872214	-159.75832	0.023230265	165.15486	0.023160832	165.24746	0.36353711	-160.09336	
14.81	0.32534809	-158.87646	0.023186725	163.84314	0.023114761	163.89634	0.36757362	-158.76107	
14.91	0.33222045	-157.61859	0.023069467	162.57364	0.023037617	162.71294	0.37258431	-158.07988	
15.01	0.33766853	-156.51967	0.023047647	161.44372	0.022976115	161.40902	0.37785454	-156.99373	
15.11	0.3427931	-155.41478	0.022936888	160.41016	0.022921049	160.43576	0.38410956	-156.037	
15.21	0.34800973	-154.2248	0.022941868	159.6883	0.022812809	159.7624	0.38776553	-154.44191	
15.31	0.35287207	-152.97996	0.023050196	158.71332	0.023028976	158.84642	0.391021	-153.63646	
15.41	0.35709142	-151.82629	0.023165036	157.39201	0.023175706	157.41351	0.39606069	-152.25856	
15.51	0.36065779	-150.56265	0.023204341	156.00743	0.023142978	155.91983	0.39950583	-151.00713	
15.61	0.36216081	-149.20869	0.023190776	154.38813	0.023036436	154.35633	0.40107257	-149.3672	
15.71	0.36261203	-147.83956	0.022983663	153.28381	0.022920245	153.42961	0.40159725	-148.49945	
15.81	0.36495801	-146.23728	0.022942297	152.57129	0.022931734	152.47489	0.40562838	-147.09499	
15.91	0.36709302	-144.85091	0.023056381	151.49596	0.022958374	151.43366	0.40593428	-145.59475	
16.01	0.3664957	-143.48017	0.023092804	150.08197	0.023044998	149.95107	0.40509756	-144.13067	
16.11	0.36412334	-141.96459	0.022873747	148.71208	0.022802754	148.56468	0.40348643	-143.10422	
16.21	0.36252554	-140.0823	0.022654133	148.32345	0.022596826	148.14095	0.40513282	-141.70597	
16.31	0.36348374	-138.14174	0.0226286	148.1153	0.022553175	148.0211	0.40199937	-140.115	
16.41	0.36347967	-136.51441	0.022897195	147.56131	0.02287875	147.52671	0.39802528	-138.94278	
16.51	0.36171264	-135.21642	0.023324001	146.9101	0.023227531	146.8632	0.39282183	-137.86739	
16.61	0.35898805	-134.17248	0.023544837	145.92302	0.023555682	145.98362	0.38950827	-136.90423	
16.71	0.3550356	-133.05788	0.023969573	144.89621	0.023906186	144.93521	0.38404071	-135.57853	
16.81	0.34820961	-131.99569	0.02446446	143.5174	0.024396956	143.6663	0.37660735	-134.55815	
16.91	0.34156002	-131.0161	0.024883118	141.4639	0.024828747	141.6825	0.3685351	-133.80063	
17.01	0.33227319	-130.20411	0.025016184	139.86702	0.025027707	139.87422	0.36149069	-133.06308	
17.11	0.32179087	-129.6383	0.025337402	138.51366	0.025270398	138.27456	0.35147871	-132.17537	
17.21	0.30858032	-129.3678	0.025703155	136.87129	0.025614535	136.83599	0.34023294	-131.57666	
17.31	0.29352454	-129.12437	0.026111435	135.00827	0.026039389	135.13396	0.32760024	-131.34073	
17.41	0.27361434	-128.92458	0.026596813	132.95201	0.026557042	133.04261	0.31606774	-131.17899	
17.51	0.25178218	-128.25998	0.026991709	130.54405	0.026901742	130.62975	0.30001993	-131.20757	
17.61	0.23021216	-126.60881	0.02724521	127.85166	0.027204463	127.94966	0.28492445	-131.84788	
17.71	0.21250971	-124.8783	0.027507534	125.06561	0.027510701	125.09791	0.26844357	-132.76268	
17.81	0.19178831	-125.21969	0.027712298	121.57589	0.027639014	121.46969	0.25338445	-133.90823	
17.91	0.16871655	-123.82871	0.027092148	117.88659	0.02703295	117.96109	0.23213779	-135.05508	
18.01	0.15058027	-120.21684	0.026017189	116.00462	0.025987255	115.94813	0.21363571	-138.6391	
18.11	0.14003181	-120.00178	0.025630009	115.76242	0.025465296	115.89522	0.19573173	-141.55615	
18.21	0.12780124	-124.07411	0.025751206	115.37919	0.025706774	115.4248	0.17637781	-147.26351	
18.31	0.11022774	-130.86487	0.026168379	114.21878	0.026108192	114.25448	0.15859554	-152.97257	
18.41	0.089774084	-141.99326	0.026611008	112.93471	0.026580389	112.84241	0.14338325	-164.1738	
18.51	0.072035427	-157.13187	0.027462339	111.19593	0.027411798	111.32393	0.13998947	-173.21168	
18.61	0.065113004	-178.49842	0.028359639	108.13092	0.028287899	108.34892	0.13438783	175.01341	
18.71	0.07032714	160.5005	0.028762755	104.87044	0.028732967	104.88384	0.13642361	163.60666	
18.81	0.087524828	138.44215	0.029077813	101.49939	0.028984231	101.46169	0.1461528	149.69131	
18.91	0.11454425	125.02261	0.029151053	98.220465	0.029050547	98.176666	0.16634356	141.32955	
19.01	0.14027866	115.7757	0.029185199	95.156789	0.029151617	95.099393	0.18355475	133.51305	
19.11	0.1634539	108.49086	0.029238572	92.089592	0.029127697	92.274087	0.2076126	128.14479	
19.21	0.18699203	106.3565	0.029305853	88.910428	0.029241817	89.019728	0.22976834	123.33928	
19.31	0.21176331	106.21988	0.029341354	85.493976	0.029223361	85.654976	0.25843327	119.91736	
19.41	0.24117982	105.99232	0.029082499	82.237496	0.029025634	82.387396	0.28267418	117.2468	
19.51	0.2708407	105.11502	0.028740254	78.97234	0.028565419	78.87724	0.30984241	115.11937	
19.61	0.3009558	104.46723	0.028193952	76.100694	0.028099972	75.939704	0.33499908	113.99658	
19.71	0.32808752	103.68173	0.027502392	73.423227	0.027518228	73.450423	0.35789854	113.26646	
19.81	0.35300677	102.92851	0.027021691	71.74251	0.026968854	71.742519	0.37993977	112.0688	
19.91	0.37180249	103.05776	0.026820326	69.723614	0.026774049	69.692611	0.40483457	111.52926	
20.01	0.388982	103.87395	0.026832464	68.12634	0.026647751	68.07224	0.42736828	111.47398	
