!
! Hittite Microwave Corporation
! 2 Elizabeth Drive
! Chelmsford, MA 01824
! http://www.hittite.com
! Tel: 978-250-3343
! Fax: 978-250-3373
! 
! Device:      HMC424LP3
! Description: 0.5 dB GaAs MMIC 6-Bit Digital Attenuator
! Frequency:    DC -  13.00 GHz
! Package:     LP3  - 3x3 mm Quad Flatpack No-Lead (QFN) Plastic Package: 16 pin
! Ports:       2 RF, 7 DC
!              Pad  1  = Ground
!              Pad  2  = RF IN   =  Port 1
!              Pad  3  = Ground
!              Pad  4  = V6
!              Pad  5  = V5
!              Pad  6  = V4
!              Pad  7  = V3
!              Pad  8  = V2
!              Pad  9  = V1
!              Pad 10  = Ground
!              Pad 11  = RF OUT  = Port 2
!              Pad 12  = Ground
!              Pad 15  = VEE
!
! Control:     -5 Volt control voltage
! State:        61 
! Attenuation:  30.5 dB
! Voltages:    Vdd = -5.00 Volts  Idd =  -2.640 mA
!              V1  = -5.00 Volts  I1  =  -1.0 uA
!              V2  = 0.00 Volts  I2  =  29.0 uA
!              V3  = -5.00 Volts  I3  =  -1.0 uA
!              V4  = -5.00 Volts  I4  =  -1.0 uA
!              V5  = -5.00 Volts  I5  =  -1.0 uA
!              V6  = -5.00 Volts  I6  =  -1.0 uA
!
! Data:    The device was measured on evaluation board 105354-1. 
!          Data was collected using a calibrated network analyzer.
!          The evaluation circuit board was modeled and simulated.  This was use
!          to removed the evaluation board circuit from the measured data.
!          The reference plane is the edge of the package pin.
!
! Misc:    Lot xxxx, Unit 1
!          Application 20120001, Data collected in Application 20090083
!
! Date Measured:  2009-09-15
! Date:           2012-05-14  MJV
! Note: 
!   Hittite supplies this data as a sample of measured data at the package pin
!   for this product.  Your particular data for this product may vary.
!   Data was taken at 25 degrees C.
!   Hittite reserves the right to change this data at anytime.
!
# GHz S MA R 50

0.01	0.051233973	171.41975	0.023497116	-1.6961339	0.024593173	-4.5369339	0.043088899	6.1812767	
0.11	0.053450651	178.83767	0.023406836	-1.9990558	0.022908292	-1.6252558	0.039101646	0.5966844	
0.21	0.052331792	178.43648	0.023092419	-3.2911835	0.023087103	-3.4683835	0.038448991	-7.8521941	
0.31	0.0505376	177.82232	0.023079756	-4.6281055	0.023005476	-4.7208055	0.0437223	-10.231141	
0.41	0.04973942	177.59029	0.023042049	-5.8013459	0.023010237	-5.8989459	0.044379705	-10.906942	
0.51	0.047911724	177.43163	0.022982701	-7.0210475	0.022985347	-7.2183475	0.043651526	-13.211676	
0.61	0.046754386	177.75229	0.023031318	-8.4550198	0.023002169	-8.5084198	0.045087083	-19.729228	
0.71	0.044155189	178.20004	0.022917818	-9.9271255	0.022962717	-9.7157255	0.051374991	-21.20028	
0.81	0.042222945	177.86135	0.022982286	-11.177291	0.022874058	-11.003191	0.051254531	-20.020026	
0.91	0.039359733	178.16705	0.022926863	-12.434675	0.022858337	-12.359875	0.05265147	-24.902851	
1.01	0.03718212	177.00219	0.022924041	-13.599626	0.022924041	-13.596026	0.056034678	-28.121712	
1.11	0.034596621	177.43823	0.022870334	-14.90445	0.022928334	-14.93015	0.062603476	-27.463411	
1.21	0.03229914	176.02255	0.022849912	-16.178145	0.022847281	-16.194745	0.061273176	-25.955216	
1.31	0.029758329	175.87916	0.022851586	-17.451853	0.022825293	-17.502953	0.063675751	-30.586555	
1.41	0.027026205	173.71289	0.022865926	-18.74943	0.022847506	-18.66053	0.068257788	-31.027055	
1.51	0.025035653	172.41112	0.022775044	-19.910496	0.02284595	-19.933896	0.072290062	-29.674416	
1.61	0.02205553	170.11675	0.022735186	-21.177153	0.022745659	-21.185153	0.0705689	-28.527041	
1.71	0.020261941	167.10728	0.022746681	-22.52271	0.022770263	-22.38701	0.072265959	-32.930183	
1.81	0.017906433	163.59161	0.022785983	-23.535734	0.022702191	-23.724534	0.076681413	-32.494167	
1.91	0.016657067	157.77209	0.022718824	-24.85509	0.022710978	-24.94549	0.077883117	-31.828222	
2.01	0.015210875	152.62028	0.022788553	-26.375647	0.022686461	-26.082347	0.075760551	-32.004017	
2.11	0.014487932	146.92775	0.022658354	-27.634384	0.022619258	-27.649784	0.07771181	-36.424744	
2.21	0.013546395	142.52493	0.022582228	-28.840455	0.022639498	-28.864555	0.082142418	-35.892422	
2.31	0.012954255	137.14833	0.022776404	-30.073283	0.022606595	-29.987783	0.081331236	-35.822134	
2.41	0.012541509	133.26116	0.022615755	-31.294764	0.022644414	-31.444464	0.079631018	-37.515615	
2.51	0.012119282	129.46693	0.022605581	-32.624128	0.022629017	-32.334328	0.082285662	-41.702465	
2.61	0.012223663	126.98639	0.0225863	-33.880982	0.022625339	-33.746182	0.086228991	-40.920586	
2.71	0.011674859	124.64168	0.022527341	-35.050356	0.022550695	-35.290756	0.083935613	-41.603905	
2.81	0.012098959	124.68068	0.022564463	-36.246824	0.022442695	-36.480424	0.083375206	-44.430142	
2.91	0.011112668	124.95363	0.022480818	-37.76774	0.022480818	-37.66624	0.086459214	-47.860727	
3.01	0.011130591	127.24993	0.022520833	-39.024636	0.022417359	-38.975036	0.089892574	-47.157887	
3.11	0.010555775	130.54247	0.022467156	-40.263879	0.022430973	-40.013279	0.086456953	-48.317975	
3.21	0.010462581	132.65103	0.022474831	-41.538478	0.022456726	-41.509678	0.087050049	-52.018181	
3.31	0.010115094	139.91814	0.022475662	-42.743421	0.022351799	-42.791121	0.090346896	-54.454679	
3.41	0.0099668584	147.01339	0.022390691	-43.923386	0.022290381	-44.098886	0.09247496	-54.184653	
3.51	0.0098393546	156.66929	0.02242144	-45.226001	0.022333845	-45.403101	0.089029757	-56.530832	
3.61	0.010379027	166.28281	0.022280775	-46.623073	0.022288472	-46.548373	0.091492253	-60.937899	
3.71	0.010568079	178.03712	0.022351745	-47.775951	0.022241364	-47.636851	0.09537145	-62.620823	
3.81	0.011381531	-171.22125	0.022281663	-49.382799	0.022294493	-49.225999	0.096394855	-62.858606	
3.91	0.012512135	-161.22125	0.02225985	-50.255896	0.022142274	-50.460996	0.094080838	-66.458045	
4.01	0.014022332	-124.9677	0.022243299	-51.637101	0.022222822	-51.646401	0.10651486	-68.280042	
4.11	0.015719462	-119.25728	0.022216143	-52.83177	0.022231495	-53.05277	0.11056659	-68.533321	
4.21	0.017981195	-114.35966	0.022133772	-54.172416	0.022189904	-54.336816	0.11155151	-68.923966	
4.31	0.020535636	-107.79153	0.022131399	-55.417175	0.022144142	-55.469475	0.11161912	-71.657623	
4.41	0.022363701	-102.47954	0.022142798	-56.660094	0.022058831	-56.880894	0.11863704	-73.333402	
4.51	0.024586681	-98.012743	0.022067574	-58.101795	0.022065033	-58.108995	0.12170976	-72.431081	
4.61	0.027003876	-94.336958	0.022042578	-59.305761	0.02206797	-59.288161	0.12229765	-72.61814	
4.71	0.029961477	-89.896412	0.022040969	-60.705547	0.021975091	-60.547047	0.12272189	-74.376656	
4.81	0.032335602	-86.435493	0.021986422	-61.898522	0.021966181	-61.774022	0.12984298	-75.186651	
4.91	0.035316505	-82.555202	0.021937403	-63.280933	0.021914684	-63.209433	0.13140254	-73.443046	
5.01	0.037957709	-79.374624	0.021903106	-64.528918	0.021903106	-64.631618	0.13059863	-73.962522	
5.11	0.041473876	-75.364582	0.021955567	-65.857333	0.021897506	-65.928633	0.13170515	-75.00355	
5.21	0.044139554	-72.28373	0.021951511	-67.060886	0.021883381	-67.164986	0.13758041	-75.474051	
5.31	0.047762636	-69.24522	0.021833179	-68.612922	0.021820614	-68.536622	0.13853051	-73.351036	
5.41	0.050956409	-65.721436	0.021860581	-69.727862	0.021717594	-69.945762	0.13697044	-74.115665	
5.51	0.054533673	-62.894088	0.021721258	-71.135194	0.021751288	-71.130494	0.139574	-74.712423	
5.61	0.058162715	-59.382922	0.021796426	-72.322173	0.021688789	-72.382573	0.14415132	-74.533323	
5.71	0.061187371	-56.456422	0.021661973	-73.525653	0.021592256	-73.709853	0.1442693	-72.197734	
5.81	0.065085028	-53.090044	0.021609262	-75.071092	0.021554599	-75.112992	0.14181896	-72.807929	
5.91	0.068133807	-50.283857	0.0215808	-76.276168	0.021516297	-76.284268	0.14567478	-72.916793	
6.01	0.071917154	-47.262661	0.021510741	-77.525101	0.021458797	-77.582001	0.14901708	-71.604559	
6.11	0.075419876	-44.444158	0.02149234	-78.757683	0.02141577	-78.841083	0.14794914	-69.165538	
6.21	0.079473768	-41.039395	0.021435321	-79.870893	0.021381097	-80.150493	0.14454113	-69.407099	
6.31	0.082592547	-38.483228	0.021397875	-81.272344	0.021373254	-81.398544	0.14791767	-68.855996	
6.41	0.086702284	-35.226579	0.02127524	-82.468903	0.021356225	-82.524203	0.14859404	-66.852206	
6.51	0.089930287	-32.124331	0.021318241	-83.859923	0.021266762	-83.687723	0.14624905	-64.299045	
6.61	0.09321784	-28.909847	0.02133498	-85.096407	0.021327612	-85.149707	0.14127127	-63.976715	
6.71	0.096014865	-26.207935	0.02125327	-86.48736	0.021258164	-86.47566	0.14285101	-63.31825	
6.81	0.099161401	-23.41342	0.021229256	-87.932911	0.021143885	-87.773111	0.14087111	-60.870947	
6.91	0.10197445	-20.515545	0.021162471	-89.152473	0.021147858	-89.303273	0.13696059	-58.90628	
7.01	0.10412941	-17.833841	0.021117541	-90.430883	0.02110053	-90.497583	0.13065088	-58.256225	
7.11	0.10654642	-15.178958	0.021085196	-91.721216	0.021056085	-91.842916	0.1311606	-58.100111	
7.21	0.10824068	-12.374468	0.021005999	-92.955152	0.020991493	-93.093252	0.12750556	-55.073489	
7.31	0.1102181	-9.4760987	0.021017868	-94.364066	0.020979187	-94.312066	0.12107195	-54.047802	
7.41	0.11139496	-6.9224117	0.021053398	-95.580575	0.021031595	-95.708575	0.11540264	-53.993071	
7.51	0.11279479	-4.0648217	0.021039269	-96.80903	0.020957074	-96.87043	0.11434141	-54.040671	
7.61	0.11318356	-1.6023637	0.021005722	-98.251984	0.021010559	-98.320184	0.11005636	-50.973479	
7.71	0.11378115	1.1036628	0.020979009	-99.731872	0.020930758	-99.807072	0.10220778	-50.3241	
7.81	0.11316623	3.6481667	0.021025592	-101.09823	0.020965163	-101.16503	0.096254666	-50.572618	
7.91	0.1131282	6.1553664	0.020987358	-102.49474	0.020917404	-102.39374	0.093177312	-50.841986	
8.01	0.11230241	8.8384968	0.021003011	-103.88584	0.020940235	-104.08244	0.087138596	-47.848339	
8.11	0.11046662	11.557353	0.020891738	-105.51316	0.02092303	-105.37186	0.077648318	-48.294323	
8.21	0.10849334	14.203914	0.02095408	-106.66408	0.020874621	-106.89208	0.071034722	-49.704207	
8.31	0.10639321	17.03111	0.020905712	-108.04471	0.02091775	-108.24441	0.066334242	-50.553225	
8.41	0.10361773	19.970741	0.020877942	-109.50042	0.02088275	-109.55102	0.058530956	-47.988921	
8.51	0.10033509	23.085602	0.020959477	-111.06409	0.020863177	-110.91899	0.047463237	-51.708427	
8.61	0.096699834	26.093875	0.020962051	-112.52434	0.020969293	-112.66194	0.040890864	-58.980965	
8.71	0.092656439	29.709592	0.02092548	-113.87217	0.020896591	-114.03797	0.035489957	-64.95384	
8.81	0.087860464	33.55206	0.020993997	-115.4113	0.020933658	-115.3483	0.026747756	-71.209966	
8.91	0.082491321	37.413677	0.021010372	-116.96397	0.020988613	-117.08687	0.02186879	-101.31199	
9.01	0.077240146	41.240442	0.020983565	-118.6321	0.020954595	-118.544	0.025180445	-121.54829	
9.11	0.072780293	46.535908	0.021020002	-120.07925	0.021029684	-120.15675	0.030023639	-137.52559	
9.21	0.066557024	52.339386	0.020969832	-121.72542	0.020989155	-121.78332	0.033972966	-149.64971	
9.31	0.062282405	58.798093	0.021022589	-123.56229	0.020988732	-123.59319	0.04604497	-161.40559	
9.41	0.057142748	67.711218	0.020874134	-125.29903	0.020826125	-125.35193	0.055711637	-160.06505	
9.51	0.053473736	76.495391	0.020624244	-126.70171	0.020638495	-126.81811	0.061630311	-164.13796	
9.61	0.050557254	86.709011	0.020613236	-127.96167	0.020535069	-128.05127	0.072065254	-167.02317	
9.71	0.047810154	97.94888	0.020587746	-129.2544	0.020545125	-129.4138	0.083309243	-167.76614	
9.81	0.046666446	109.77511	0.020487991	-130.4938	0.020353981	-130.7147	0.092313983	-166.71564	
9.91	0.047504748	121.44345	0.02039372	-131.49166	0.02036322	-131.67466	0.098908799	-167.90858	
10.01	0.049629736	132.44727	0.020386452	-133.12645	0.020365339	-133.01665	0.10972853	-168.84654	
10.11	0.053712594	143.10285	0.020366046	-134.29828	0.020314528	-134.39918	0.12067152	-168.64006	
10.21	0.0581118	152.05012	0.020297851	-135.69376	0.020174373	-135.61246	0.1290001	-167.04967	
10.31	0.063990995	160.32015	0.020229746	-136.68415	0.020162317	-136.56325	0.13445143	-167.49019	
10.41	0.06959971	165.94467	0.02016938	-137.60588	0.020104467	-137.52828	0.1453819	-167.53397	
10.51	0.077168121	171.44315	0.020319371	-138.4657	0.020202739	-138.4941	0.15543655	-166.60373	
10.61	0.083983844	176.41646	0.020400058	-139.73897	0.020334402	-139.88777	0.16246288	-165.24349	
10.71	0.090903737	-179.42614	0.020415274	-141.33511	0.020380049	-141.23501	0.16803774	-165.5573	
10.81	0.098083534	-175.93128	0.020601539	-142.75626	0.02046443	-142.63286	0.17832245	-165.25533	
10.91	0.10486528	-172.81115	0.020562373	-144.08213	0.020500915	-143.97593	0.18575368	-163.9202	
11.01	0.11203692	-170.40195	0.020610625	-145.36935	0.020558488	-145.34745	0.19054036	-162.94196	
11.11	0.11861604	-167.6264	0.020543232	-146.71216	0.020526683	-146.71596	0.19459463	-162.83981	
11.21	0.12456864	-165.66823	0.020593979	-147.92142	0.020582127	-148.16972	0.20227753	-162.56076	
11.31	0.13066249	-163.9703	0.0205901	-149.55479	0.020616192	-149.64649	0.20720317	-161.42296	
11.41	0.13686089	-162.54825	0.020650983	-150.69241	0.020560834	-150.88941	0.20971761	-160.56881	
11.51	0.14246503	-160.99752	0.020579025	-152.10098	0.020560079	-152.22508	0.21134968	-160.78913	
11.61	0.14758742	-159.95557	0.020548423	-153.74078	0.020553155	-153.79468	0.21811579	-160.98482	
11.71	0.15300599	-158.89881	0.020545072	-155.07117	0.02050254	-155.09407	0.22053419	-160.1052	
11.81	0.15786769	-158.08919	0.020592528	-156.38088	0.020575939	-156.55518	0.22218234	-160.2696	
11.91	0.16285497	-157.44043	0.020556248	-157.8689	0.020499527	-157.7501	0.22420226	-160.52698	
12.01	0.1673269	-156.86685	0.020512888	-159.22327	0.020548343	-159.21877	0.2294442	-160.86064	
12.11	0.17238191	-156.49011	0.020484933	-160.74182	0.020510892	-160.87992	0.23119578	-160.25021	
12.21	0.17714385	-156.28622	0.020458655	-162.1575	0.020392811	-162.2834	0.23221658	-160.88427	
12.31	0.18194623	-156.27979	0.020436088	-163.83933	0.020393782	-163.83143	0.23568664	-161.3647	
12.41	0.1863886	-156.60768	0.020141698	-165.73383	0.020134742	-165.91243	0.24127288	-161.86291	
12.51	0.18963104	-156.93108	0.019773632	-167.00741	0.019698649	-166.91571	0.24305765	-161.26378	
12.61	0.19273884	-156.88242	0.019528873	-166.94542	0.019522129	-166.86422	0.24405442	-162.29218	
12.71	0.19787045	-156.36368	0.019716454	-167.59091	0.019657523	-167.58971	0.2494838	-162.74802	
12.81	0.20258069	-156.26643	0.019818422	-168.7934	0.019791061	-168.8873	0.25422919	-162.98724	
12.91	0.2087641	-156.28458	0.019989192	-169.98291	0.019982289	-169.95941	0.25761174	-162.70442	
13.01	0.21399731	-156.42501	0.019997842	-171.31964	0.020007053	-171.31734	0.25977555	-163.52789	
13.11	0.22068645	-156.70338	0.019979666	-173.04673	0.019986568	-172.99113	0.26591168	-163.9424	
13.21	0.2266641	-156.79969	0.020010875	-174.39514	0.019969449	-174.44334	0.27054939	-164.11211	
13.31	0.23256945	-157.03953	0.019846038	-175.78174	0.019834617	-175.86244	0.27485175	-164.09249	
13.41	0.23888964	-157.29171	0.019826428	-176.63342	0.019739879	-176.77072	0.27832948	-164.64918	
13.51	0.2459566	-157.34457	0.01984279	-177.83478	0.019826805	-177.77698	0.28585806	-164.93954	
13.61	0.25294687	-157.53404	0.019853385	-179.14671	0.019864816	-179.19191	0.29178137	-164.81352	
13.71	0.26128859	-157.65036	0.019919041	179.35458	0.019857219	179.62618	0.29674668	-164.63925	
13.81	0.26902898	-157.4916	0.019971221	178.13852	0.019868021	178.14532	0.30189259	-165.01119	
13.91	0.27673042	-157.5257	0.019895943	176.70123	0.01983191	176.80273	0.31126743	-164.77515	
14.01	0.28554303	-157.49146	0.019861617	175.46396	0.019768085	175.41286	0.31643522	-164.24207	
14.11	0.29377802	-157.15753	0.019837351	174.1215	0.01970306	173.9955	0.32298085	-163.87159	
14.21	0.30146251	-156.89785	0.019753244	172.89384	0.019725973	172.84984	0.32890186	-163.70185	
14.31	0.31041507	-156.6225	0.019768729	171.74401	0.019628122	171.77781	0.33839476	-163.04765	
14.41	0.3188576	-156.17511	0.019718446	170.50544	0.01969349	170.55244	0.34264822	-162.1767	
14.51	0.32755899	-155.66128	0.01960666	169.2154	0.019570576	169.1053	0.34935084	-161.66662	
14.61	0.33602696	-155.05449	0.019695659	167.98797	0.019569085	167.86467	0.35477656	-160.93566	
14.71	0.34412706	-154.37334	0.019587086	166.7801	0.019551039	166.7343	0.36336267	-160.08867	
14.81	0.35200432	-153.82377	0.019580279	165.45698	0.019501539	165.60088	0.36735509	-158.74791	
14.91	0.3601331	-152.91642	0.019505673	164.28229	0.019516905	164.22979	0.37243215	-158.09328	
15.01	0.36664676	-152.1386	0.019461714	162.99545	0.019408014	163.00465	0.37765073	-157.01281	
15.11	0.37300497	-151.31757	0.019322299	162.18699	0.019284519	162.17919	0.38401203	-156.02686	
15.21	0.37937908	-150.42407	0.019348269	161.58454	0.019361639	161.48494	0.3874257	-154.44382	
15.31	0.38517599	-149.48724	0.019540771	160.40151	0.019455469	160.61601	0.39086459	-153.63156	
15.41	0.3903629	-148.59173	0.019545303	159.08794	0.019540804	159.18314	0.39579286	-152.25414	
15.51	0.39481396	-147.64686	0.019621182	157.87183	0.019580563	157.79133	0.3993369	-151.02005	
15.61	0.39707674	-146.55429	0.019596544	156.27292	0.019522233	156.16382	0.40095802	-149.3612	
15.71	0.39835526	-145.47727	0.019464486	154.99246	0.019413013	155.39946	0.4015298	-148.48895	
15.81	0.40151106	-144.17016	0.01941816	154.46333	0.019317819	154.53063	0.40546546	-147.09761	
15.91	0.40434	-143.03502	0.019546771	153.55844	0.019412212	153.45324	0.40584708	-145.6075	
16.01	0.40418646	-141.97393	0.019567887	151.99865	0.019455569	151.84025	0.40501574	-144.12002	
16.11	0.40252767	-140.71417	0.019365097	150.64889	0.019338362	150.51099	0.40341574	-143.07958	
16.21	0.4013196	-139.17301	0.019051507	150.21193	0.018977077	150.21383	0.40505269	-141.68213	
16.31	0.40274129	-137.58683	0.019068916	150.46809	0.019082093	150.31349	0.40181318	-140.10326	
16.41	0.40300158	-136.25176	0.019405917	150.06311	0.019254585	150.06411	0.39801657	-138.93492	
16.51	0.40151204	-135.22893	0.01970517	149.35043	0.019714247	149.35343	0.39285109	-137.86263	
16.61	0.39887635	-134.47727	0.020067594	148.80132	0.020030662	148.54942	0.38964992	-136.88826	
16.71	0.39492139	-133.65184	0.020405594	147.64134	0.020400896	147.58624	0.38416552	-135.55524	
16.81	0.38816818	-132.97208	0.020960416	146.23842	0.02092425	146.49052	0.37679081	-134.53612	
16.91	0.38150065	-132.24068	0.021333291	144.19708	0.021264631	144.36018	0.3685414	-133.77833	
17.01	0.37219037	-131.7702	0.02145283	142.48834	0.02143308	142.63494	0.36164499	-133.03703	
17.11	0.36191793	-131.54702	0.021771482	141.23831	0.021758952	141.28311	0.35153278	-132.13069	
17.21	0.34877945	-131.65903	0.0220912	139.7687	0.022078486	140.01937	0.34035633	-131.53164	
17.31	0.33307248	-131.84062	0.022579542	137.66354	0.022550962	138.10312	0.32796612	-131.28917	
17.41	0.31314058	-132.14818	0.02310801	135.63555	0.023057516	135.84924	0.31627057	-131.13242	
17.51	0.29086395	-132.17553	0.023473208	133.21638	0.023397662	132.90269	0.30017969	-131.17061	
17.61	0.26851317	-131.50941	0.023780123	130.32953	0.023744559	130.49823	0.28531276	-131.81153	
17.71	0.2494862	-130.84592	0.024012493	127.2407	0.024056767	127.4042	0.26890295	-132.65066	
17.81	0.22807583	-132.19606	0.024265272	123.41985	0.024259685	123.60635	0.25363415	-133.80413	
17.91	0.20342906	-132.49496	0.023624742	119.62123	0.023578549	119.37003	0.23252695	-134.99558	
18.01	0.18252298	-131.04284	0.022494037	117.37398	0.022429384	117.34239	0.21407265	-138.49895	
18.11	0.17102717	-132.01553	0.022034808	117.54942	0.021855428	117.44953	0.19632849	-141.32861	
18.21	0.15987199	-136.77564	0.022100422	117.33712	0.022138619	117.42822	0.17673708	-147.05753	
18.31	0.14494287	-144.30715	0.022555895	116.52273	0.022467776	116.61284	0.15865469	-152.61237	
18.41	0.12857139	-155.33729	0.022999308	115.15238	0.023036409	115.48858	0.14380806	-163.89533	
18.51	0.11495156	-168.11268	0.023948852	113.82718	0.024017882	113.77268	0.14002868	-172.95254	
18.61	0.11104297	177.17526	0.024768507	110.84452	0.024720078	110.85332	0.13439314	175.27545	
18.71	0.11661039	163.24621	0.025222244	107.36573	0.025204827	107.46803	0.13648794	163.99076	
18.81	0.13110829	147.02559	0.025559522	103.68722	0.025450878	103.81183	0.14570417	150.03203	
18.91	0.15505926	134.88987	0.025688189	100.35297	0.025744441	100.45107	0.16623919	141.56381	
19.01	0.17797887	125.37713	0.025797339	97.099465	0.025705433	97.24177	0.18300951	133.79116	
19.11	0.19897471	117.55681	0.025822713	93.974286	0.025769254	94.157678	0.2068404	128.2885	
19.21	0.22255763	114.17037	0.025917864	90.515583	0.025831475	90.736583	0.22937615	123.52157	
19.31	0.24825039	112.6544	0.025924143	87.279934	0.025888352	87.043334	0.25784115	119.96283	
19.41	0.27800714	111.29979	0.02555194	83.69112	0.025504914	83.79002	0.28205906	117.29297	
19.51	0.30841346	109.47247	0.025201508	80.383698	0.025175408	80.521198	0.30930537	115.25852	
19.61	0.33855615	108.02775	0.024774522	77.359709	0.024694788	77.103912	0.3347151	114.09044	
19.71	0.36585221	106.68658	0.02419425	74.918083	0.024113609	74.809789	0.35739448	113.31527	
19.81	0.39046096	105.46049	0.023795239	73.239921	0.023721386	73.27342	0.37947049	112.14036	
19.91	0.40948147	105.15751	0.023538379	71.004807	0.023500478	70.889423	0.40438484	111.61082	
20.01	0.42698773	105.52488	0.023560676	69.190473	0.023509195	69.383073	0.42686148	111.50707	
