!
! Hittite Microwave Corporation
! 2 Elizabeth Drive
! Chelmsford, MA 01824
! http://www.hittite.com
! Tel: 978-250-3343
! Fax: 978-250-3373
! 
! Device:      HMC424LP3
! Description: 0.5 dB GaAs MMIC 6-Bit Digital Attenuator
! Frequency:    DC -  13.00 GHz
! Package:     LP3  - 3x3 mm Quad Flatpack No-Lead (QFN) Plastic Package: 16 pin
! Ports:       2 RF, 7 DC
!              Pad  1  = Ground
!              Pad  2  = RF IN   =  Port 1
!              Pad  3  = Ground
!              Pad  4  = V6
!              Pad  5  = V5
!              Pad  6  = V4
!              Pad  7  = V3
!              Pad  8  = V2
!              Pad  9  = V1
!              Pad 10  = Ground
!              Pad 11  = RF OUT  = Port 2
!              Pad 12  = Ground
!              Pad 15  = VEE
!
! Control:     -5 Volt control voltage
! State:        62 
! Attenuation:  31.0 dB
! Voltages:    Vdd = -5.00 Volts  Idd =  -2.639 mA
!              V1  = 0.00 Volts  I1  =  29.0 uA
!              V2  = -5.00 Volts  I2  =  -1.0 uA
!              V3  = -5.00 Volts  I3  =  -1.0 uA
!              V4  = -5.00 Volts  I4  =  -1.0 uA
!              V5  = -5.00 Volts  I5  =  -1.0 uA
!              V6  = -5.00 Volts  I6  =  -1.0 uA
!
! Data:    The device was measured on evaluation board 105354-1. 
!          Data was collected using a calibrated network analyzer.
!          The evaluation circuit board was modeled and simulated.  This was use
!          to removed the evaluation board circuit from the measured data.
!          The reference plane is the edge of the package pin.
!
! Misc:    Lot xxxx, Unit 1
!          Application 20120001, Data collected in Application 20090083
!
! Date Measured:  2009-09-15
! Date:           2012-05-14  MJV
! Note: 
!   Hittite supplies this data as a sample of measured data at the package pin
!   for this product.  Your particular data for this product may vary.
!   Data was taken at 25 degrees C.
!   Hittite reserves the right to change this data at anytime.
!
# GHz S MA R 50

0.01	0.095309692	174.50942	0.021057943	1.7501963	0.022047835	-3.0905037	0.041005831	7.7329321	
0.11	0.096717071	178.33514	0.021946268	-1.6948516	0.02183789	-2.3738516	0.039226534	0.56510849	
0.21	0.095808229	177.49138	0.021804384	-3.1058584	0.021764256	-3.1869584	0.038494491	-7.7280721	
0.31	0.093918625	176.59615	0.021812866	-4.3618349	0.021737657	-4.5186349	0.04374881	-10.254382	
0.41	0.093036944	175.71849	0.021752629	-5.7946492	0.02174762	-5.9014492	0.044440285	-10.979224	
0.51	0.091143831	174.95676	0.021732153	-7.2613749	0.021697154	-7.3026749	0.043615539	-13.050679	
0.61	0.089958086	174.37569	0.021691165	-8.3606297	0.021636294	-8.4676297	0.045045532	-19.774084	
0.71	0.087192838	173.74335	0.021679579	-9.5613212	0.021642172	-9.7104212	0.051399883	-21.222717	
0.81	0.085230474	172.85079	0.021671318	-11.152957	0.021666328	-11.019757	0.051300888	-19.974451	
0.91	0.082265902	172.0188	0.021632285	-12.155198	0.021589988	-12.538298	0.052626054	-24.87109	
1.01	0.080022319	170.57605	0.021617934	-13.43147	0.021610469	-13.51797	0.056095041	-28.130946	
1.11	0.077437434	169.7209	0.021580549	-14.88246	0.021550755	-14.67836	0.062515379	-27.434297	
1.21	0.075147141	168.08572	0.021606786	-16.035642	0.021542206	-15.881842	0.061287347	-25.905566	
1.31	0.072528863	166.90055	0.021574349	-17.209274	0.021561934	-17.215474	0.063690832	-30.536922	
1.41	0.069835892	164.89262	0.021494371	-18.474278	0.021457283	-18.616878	0.068247506	-30.986341	
1.51	0.067824653	163.27582	0.021610168	-19.732481	0.021525743	-19.915581	0.072370315	-29.663067	
1.61	0.065051628	161.06189	0.021513491	-21.145902	0.021540753	-21.138002	0.07059688	-28.5174	
1.71	0.063244872	158.9684	0.021552143	-22.328851	0.02147536	-22.371351	0.072334842	-32.978781	
1.81	0.061033785	156.66732	0.021498116	-23.619813	0.021495641	-23.456813	0.076625035	-32.442117	
1.91	0.059866327	153.9004	0.021511791	-25.014307	0.021376006	-24.928307	0.07787559	-31.927498	
2.01	0.058593175	151.48915	0.021456794	-26.104616	0.021424704	-26.263616	0.075815128	-31.924722	
2.11	0.057813679	148.96242	0.021420634	-27.528756	0.021432968	-27.427056	0.077651608	-36.40636	
2.21	0.056825641	146.84285	0.021435038	-28.742663	0.021358672	-28.797563	0.082174253	-35.868081	
2.31	0.0561484	144.70622	0.021438515	-29.722257	0.02131546	-29.880657	0.081487393	-35.753876	
2.41	0.055765334	142.72686	0.021321813	-31.095665	0.02138327	-31.149765	0.079586658	-37.549966	
2.51	0.05528157	140.87417	0.021341694	-32.606929	0.021341694	-32.630829	0.082318402	-41.660158	
2.61	0.055241218	139.14343	0.021301423	-33.67561	0.021276913	-33.91531	0.086187913	-40.957926	
2.71	0.054697816	137.88081	0.021336538	-34.912755	0.021233615	-34.950355	0.083904064	-41.617287	
2.81	0.055273616	136.50474	0.02120746	-36.244429	0.021163557	-36.384229	0.083416111	-44.42181	
2.91	0.054420841	135.69893	0.021248402	-37.493396	0.021258189	-37.445096	0.08650277	-47.83493	
3.01	0.05446322	135.03044	0.021215286	-38.672865	0.021168929	-38.760865	0.089929721	-47.119319	
3.11	0.054028781	134.65494	0.0212112	-39.992444	0.021203875	-40.208244	0.086409939	-48.286756	
3.21	0.053991453	133.98974	0.021167387	-41.398827	0.021111411	-41.245027	0.086999633	-52.04228	
3.31	0.053651287	134.15995	0.021090583	-42.689164	0.021078446	-42.621764	0.090337001	-54.482237	
3.41	0.053369998	134.41145	0.021166604	-43.830008	0.021105769	-43.843208	0.092543274	-54.222739	
3.51	0.052633389	134.93532	0.021106013	-45.257114	0.021013877	-45.194514	0.08908038	-56.534719	
3.61	0.052193098	135.79194	0.021102523	-46.240619	0.021056413	-46.293619	0.091478305	-60.842014	
3.71	0.05102165	136.69568	0.021056284	-47.65947	0.021044167	-47.81027	0.095313547	-62.662917	
3.81	0.049883209	137.62685	0.021058833	-48.678995	0.021005562	-48.891395	0.096339939	-62.807445	
3.91	0.048619082	138.84412	0.021063428	-50.143263	0.021005308	-50.427763	0.094096247	-66.421924	
4.01	0.040715477	141.97611	0.021012673	-51.454861	0.021005417	-51.493761	0.1064263	-68.282764	
4.11	0.038855966	142.70417	0.021022179	-52.568514	0.021014919	-52.623114	0.1105453	-68.544083	
4.21	0.036606871	144.23217	0.020907029	-53.95061	0.020969705	-54.19881	0.11155388	-68.918719	
4.31	0.03337722	145.71895	0.020937518	-55.16071	0.02092306	-55.26351	0.11168552	-71.60013	
4.41	0.030489773	146.01116	0.020918616	-56.452903	0.020889736	-56.679403	0.11873609	-73.369398	
4.51	0.02738081	146.64447	0.020870773	-57.641061	0.02085396	-57.921361	0.12177241	-72.410508	
4.61	0.02432156	147.93183	0.020865696	-59.032135	0.020863294	-59.286135	0.12229977	-72.616856	
4.71	0.020378463	149.27815	0.020877874	-60.365203	0.020753258	-60.438703	0.12282712	-74.362662	
4.81	0.01696098	149.48994	0.0207969	-61.730719	0.020832846	-61.712719	0.12980441	-75.149137	
4.91	0.012666873	151.04024	0.020764119	-63.14283	0.020752169	-63.14533	0.13139392	-73.464671	
5.01	0.0087766611	150.89222	0.020740342	-64.225846	0.020709323	-64.313246	0.13066585	-73.968211	
5.11	0.0036593839	152.26556	0.020695957	-65.434762	0.020665005	-65.634662	0.1317237	-75.014419	
5.21	0.00074102666	18.052304	0.020743456	-67.026173	0.020686219	-66.973573	0.13768642	-75.449244	
5.31	0.0056643458	-20.365717	0.020687489	-68.24059	0.02068987	-68.37849	0.13851055	-73.317816	
5.41	0.010967652	-18.398375	0.020685701	-69.633523	0.020640501	-69.661523	0.13701672	-74.135085	
5.51	0.016264729	-19.198052	0.020556663	-70.9113	0.020542467	-71.0263	0.13958775	-74.688928	
5.61	0.022196424	-17.113531	0.020537959	-72.39869	0.020516689	-72.42539	0.14420716	-74.521719	
5.71	0.027374375	-15.428766	0.020458292	-73.677986	0.020392449	-73.475986	0.14431217	-72.220802	
5.81	0.03376272	-14.054941	0.020438323	-74.763392	0.020403057	-74.867992	0.14183014	-72.781285	
5.91	0.039144929	-12.361847	0.020347155	-76.196439	0.020344813	-76.301939	0.14562718	-72.902451	
6.01	0.045452595	-10.942297	0.020330831	-77.507098	0.020330831	-77.640798	0.14918444	-71.614674	
6.11	0.051459191	-9.6006859	0.02030207	-78.744606	0.020190186	-78.871006	0.14805679	-69.156916	
6.21	0.058481421	-7.6837499	0.02024807	-79.958423	0.020206153	-79.954023	0.14453122	-69.37152	
6.31	0.064088086	-6.1907314	0.020198328	-81.325883	0.020161156	-81.312283	0.14778933	-68.839361	
6.41	0.071240025	-4.4480504	0.020136719	-82.426829	0.020083468	-82.570229	0.14861736	-66.867835	
6.51	0.077573729	-2.5172338	0.020070992	-83.932939	0.020038668	-83.690739	0.14631756	-64.269622	
6.61	0.084009216	-0.46536864	0.020024617	-85.250222	0.02001079	-85.219122	0.14127946	-63.982979	
6.71	0.08968962	1.2473664	0.020103924	-86.406802	0.019995434	-86.478102	0.14293484	-63.309469	
6.81	0.095777682	2.8441867	0.019971799	-87.987251	0.019994806	-87.939951	0.1409003	-60.883938	
6.91	0.1016161	4.6819105	0.0199899	-89.098371	0.019932447	-89.250771	0.13697747	-58.880087	
7.01	0.10668037	6.4857758	0.019957161	-90.498935	0.019883771	-90.586335	0.13066805	-58.295661	
7.11	0.11190079	8.1552667	0.019848398	-91.891666	0.019816432	-91.906366	0.131204	-58.103152	
7.21	0.11652808	10.095238	0.019723213	-92.999534	0.019793731	-93.190734	0.12755605	-55.060504	
7.31	0.12150404	11.978117	0.019756229	-94.216185	0.01969718	-94.346785	0.12109082	-54.081589	
7.41	0.12541268	13.734229	0.019737895	-95.668056	0.019699302	-95.667456	0.11542808	-53.95565	
7.51	0.12982409	15.598748	0.019772726	-96.920819	0.019743155	-96.982119	0.11429922	-54.017166	
7.61	0.13267769	17.289883	0.019733109	-98.428933	0.019674129	-98.320733	0.11003892	-51.002903	
7.71	0.13590862	19.096424	0.019735624	-99.702122	0.019726538	-99.882722	0.10217401	-50.358071	
7.81	0.13777824	20.847837	0.01972515	-101.02302	0.019691116	-101.20042	0.09611418	-50.588422	
7.91	0.14008793	22.537058	0.019684481	-102.45901	0.019571493	-102.60041	0.093192783	-50.783809	
8.01	0.1416108	24.307511	0.01960458	-104.11758	0.019609095	-104.01208	0.087188669	-47.838802	
8.11	0.14206925	26.251059	0.019647711	-105.51204	0.01961381	-105.45924	0.077664862	-48.303096	
8.21	0.14206593	28.014693	0.019508735	-106.79989	0.019578486	-106.69919	0.071036694	-49.716215	
8.31	0.14201886	29.907135	0.01959484	-107.97411	0.019547523	-108.21711	0.066257676	-50.515294	
8.41	0.14116201	31.884915	0.019637879	-109.47726	0.019543151	-109.33876	0.058518991	-47.967797	
8.51	0.13962028	33.920282	0.019635036	-110.85804	0.019567336	-110.82214	0.047420995	-51.688368	
8.61	0.13758022	35.864784	0.019608014	-112.36472	0.01959673	-112.35442	0.040917399	-58.960264	
8.71	0.13502786	38.113841	0.019664957	-113.73538	0.019579112	-113.78878	0.035433548	-65.020737	
8.81	0.13150016	40.461991	0.019619855	-115.28808	0.019576984	-115.33498	0.026787281	-71.358227	
8.91	0.1270949	42.692204	0.019621298	-116.75478	0.019580679	-116.71238	0.021888762	-101.41335	
9.01	0.12260643	44.795641	0.019702635	-118.32573	0.019643747	-118.43763	0.025125108	-121.79184	
9.11	0.11861974	47.501439	0.019690669	-119.85336	0.019620518	-119.89896	0.030089475	-137.53262	
9.21	0.11236855	50.352991	0.01972081	-121.55288	0.019650552	-121.52718	0.034016264	-149.48742	
9.31	0.10757574	53.26907	0.019673743	-123.06504	0.019655631	-123.35114	0.046115629	-161.3122	
9.41	0.10100828	57.35331	0.019629256	-125.02084	0.019559324	-124.93284	0.055776226	-159.96155	
9.51	0.095409604	60.884592	0.019337648	-126.58375	0.019268755	-126.37685	0.061685616	-164.29811	
9.61	0.089404945	64.975158	0.019257951	-127.53603	0.019191551	-127.61853	0.072261667	-166.94137	
9.71	0.082382407	69.082458	0.01923082	-128.9343	0.019202059	-129.0683	0.083375477	-167.73519	
9.81	0.075572573	73.765875	0.019144968	-130.33634	0.019076762	-130.27194	0.09240588	-166.67354	
9.91	0.069387563	79.118697	0.019058012	-131.24772	0.0190317	-131.21952	0.098983538	-167.91771	
10.01	0.063451558	85.211847	0.019130065	-132.63765	0.019037786	-132.58435	0.10972719	-168.85334	
10.11	0.057889835	93.277192	0.018984792	-133.94189	0.018993537	-134.16919	0.12065322	-168.60743	
10.21	0.052841325	101.9847	0.018901604	-135.09603	0.018925557	-135.07043	0.1290646	-166.992	
10.31	0.048772024	113.16981	0.01893214	-136.03467	0.018838647	-136.13867	0.13443602	-167.41116	
10.41	0.046695331	123.32871	0.01887188	-137.06053	0.018828476	-136.84893	0.14529685	-167.49042	
10.51	0.046779552	136.05237	0.01898277	-137.94131	0.018915142	-137.96261	0.15541907	-166.59868	
10.61	0.04773206	148.36889	0.019201578	-139.24908	0.019104554	-139.14018	0.16272814	-165.27405	
10.71	0.050293614	159.47749	0.019214199	-140.5728	0.019172215	-140.576	0.16806206	-165.55081	
10.81	0.05447954	168.94172	0.019263655	-142.03186	0.019181771	-141.95466	0.1783757	-165.2214	
10.91	0.059201026	177.12099	0.019321699	-143.36733	0.019263948	-143.56963	0.18573656	-163.89411	
11.01	0.06514793	-176.72765	0.019323951	-144.88615	0.019346211	-144.75395	0.1905435	-162.90545	
11.11	0.071148961	-170.39731	0.019301044	-146.09599	0.019325503	-146.06429	0.19456358	-162.80835	
11.21	0.076991316	-166.1898	0.019393011	-147.46449	0.019292799	-147.70709	0.20235059	-162.51863	
11.31	0.082962399	-162.46674	0.01945198	-148.96387	0.019342554	-148.91737	0.20730532	-161.42881	
11.41	0.089469003	-159.66905	0.019430972	-150.24751	0.019337242	-150.39311	0.209888	-160.5668	
11.51	0.095481375	-156.67116	0.019441709	-151.54276	0.019298983	-151.86266	0.21122845	-160.80855	
11.61	0.10127314	-154.72782	0.019379896	-153.13005	0.019321972	-153.30265	0.21808555	-160.97252	
11.71	0.10731079	-152.75945	0.019386181	-154.33289	0.019283785	-154.57229	0.22064296	-160.11225	
11.81	0.11289464	-151.31299	0.019419429	-155.51724	0.019412723	-155.90414	0.22222576	-160.298	
11.91	0.11865714	-150.10572	0.019403801	-157.35061	0.019336898	-157.28041	0.22431506	-160.52115	
12.01	0.12399156	-149.14459	0.019342104	-158.79422	0.019319849	-158.84322	0.22938887	-160.85373	
12.11	0.129668	-148.38098	0.019246582	-160.23043	0.019270972	-160.31203	0.23128941	-160.2652	
12.21	0.13525027	-147.96805	0.019229924	-161.66471	0.019214432	-161.82651	0.23234209	-160.8842	
12.31	0.14086153	-147.80832	0.019298674	-163.35347	0.01919232	-163.47257	0.23575103	-161.34647	
12.41	0.14581767	-148.16881	0.019013995	-165.4718	0.018985559	-165.6395	0.24121287	-161.84212	
12.51	0.14933836	-148.38885	0.018537355	-166.70668	0.018533087	-166.58298	0.24316817	-161.28327	
12.61	0.15303207	-148.10082	0.018377697	-166.44767	0.018333318	-166.63207	0.24414193	-162.27411	
12.71	0.15912951	-147.35297	0.018491805	-167.11048	0.018466276	-167.11188	0.24958179	-162.70477	
12.81	0.1649362	-147.18154	0.018670342	-168.29989	0.018646712	-168.19109	0.25425952	-163.01239	
12.91	0.1718533	-147.08055	0.018795697	-169.71682	0.01874815	-169.74052	0.2576404	-162.69152	
13.01	0.17793567	-147.2252	0.018850467	-170.82475	0.018839619	-170.99525	0.25980051	-163.49741	
13.11	0.18533332	-147.61575	0.018926502	-172.61315	0.018813533	-172.47615	0.26594487	-163.94124	
13.21	0.19230902	-147.80506	0.018856923	-174.00323	0.018896041	-173.83013	0.27048849	-164.09866	
13.31	0.19889304	-148.09388	0.018725936	-175.55392	0.018734562	-175.44262	0.27478782	-164.07717	
13.41	0.2061433	-148.41581	0.018669821	-176.22389	0.0186419	-176.41859	0.27827438	-164.64377	
13.51	0.2142558	-148.55298	0.018745008	-177.35696	0.018667477	-177.56406	0.28594624	-164.95306	
13.61	0.22219422	-148.8479	0.018747589	-178.72855	0.018702318	-178.65015	0.29182094	-164.80916	
13.71	0.23144684	-149.16892	0.018780632	179.939	0.018724499	179.9906	0.29682127	-164.64229	
13.81	0.24038402	-149.08449	0.018793844	178.39704	0.018802501	178.54444	0.30191607	-165.00993	
13.91	0.24912345	-149.25619	0.01875669	176.99741	0.01871355	177.11141	0.31131427	-164.76348	
14.01	0.25896158	-149.38012	0.01872266	175.84024	0.018677449	175.85044	0.31636007	-164.23842	
14.11	0.26860657	-149.18224	0.018601005	174.356	0.018650325	174.4153	0.32308807	-163.88087	
14.21	0.27756701	-149.03397	0.018637602	173.02908	0.018581896	173.15018	0.32892198	-163.69376	
14.31	0.28774936	-148.90648	0.018612315	172.04368	0.018563095	172.02488	0.33835945	-163.05021	
14.41	0.29760296	-148.58658	0.018598753	170.58739	0.01854957	170.57499	0.34257585	-162.15891	
14.51	0.30785847	-148.2168	0.018563496	169.45276	0.018505881	169.31866	0.34942692	-161.68403	
14.61	0.31775368	-147.77411	0.01855751	168.09297	0.018506304	168.22127	0.35486429	-160.93705	
14.71	0.32742784	-147.20222	0.018554077	166.77811	0.018487976	166.79691	0.36342414	-160.07743	
14.81	0.33679882	-146.78497	0.01850556	165.57942	0.01847363	165.42902	0.36725961	-158.76483	
14.91	0.34668116	-146.00815	0.018381077	164.52357	0.018381077	164.32647	0.37242742	-158.096	
15.01	0.35479299	-145.32045	0.018340459	163.27987	0.018251989	163.19047	0.37770196	-157.00048	
15.11	0.36268086	-144.60163	0.018198257	162.3222	0.018183597	162.3682	0.38391792	-156.04241	
15.21	0.37052539	-143.81991	0.018235487	161.60825	0.018220796	161.51155	0.38759181	-154.43541	
15.31	0.37813997	-142.99941	0.018447389	160.70115	0.018290893	160.63995	0.39095416	-153.64254	
15.41	0.38478631	-142.21684	0.018485179	159.29163	0.018402366	159.23473	0.39579804	-152.26174	
15.51	0.39076593	-141.35309	0.018566862	157.69007	0.018479427	157.87327	0.39930784	-151.02746	
15.61	0.3945836	-140.3131	0.018522051	156.25678	0.0184009	155.88168	0.40090342	-149.36489	
15.71	0.39739393	-139.2599	0.018283678	155.13615	0.018256333	154.89445	0.40149295	-148.51777	
15.81	0.40219354	-137.9892	0.018315003	154.51777	0.018211973	154.53557	0.40552005	-147.09156	
15.91	0.40671927	-136.97127	0.018337003	153.42419	0.018296935	153.46129	0.40578482	-145.61041	
16.01	0.40820776	-135.90251	0.018431387	151.88234	0.018355154	151.80044	0.40517085	-144.1219	
16.11	0.40795566	-134.68959	0.018192967	150.19021	0.018157395	150.47421	0.40354322	-143.10011	
16.21	0.40878326	-133.12018	0.017860734	150.07788	0.017786861	150.34238	0.40511574	-141.6867	
16.31	0.41229513	-131.58074	0.017851334	150.63587	0.017806177	150.49657	0.40192594	-140.10807	
16.41	0.41445177	-130.31521	0.018050831	150.36158	0.018054987	150.41748	0.39829205	-138.9276	
16.51	0.41497301	-129.35393	0.018431837	149.74105	0.018391562	149.69385	0.39274515	-137.84826	
16.61	0.41398705	-128.60147	0.018777192	149.04594	0.01869307	148.84294	0.38960725	-136.89411	
16.71	0.4117465	-127.80846	0.019137801	147.8185	0.01910258	148.1344	0.38421052	-135.56668	
16.81	0.4064726	-127.10933	0.019687489	146.73294	0.019671629	147.05134	0.37666583	-134.54663	
16.91	0.40136948	-126.3864	0.019961325	144.77967	0.020021166	144.80297	0.36877913	-133.79004	
17.01	0.39328054	-125.84042	0.02021563	143.00725	0.020199345	143.14445	0.36149923	-133.05122	
17.11	0.38453526	-125.52912	0.020391393	141.64472	0.020466656	141.64932	0.35163197	-132.14838	
17.21	0.37247643	-125.51849	0.020909578	140.21639	0.020847079	140.28438	0.34035431	-131.52977	
17.31	0.3579962	-125.4787	0.021381637	138.30445	0.021334915	138.42115	0.32798634	-131.3127	
17.41	0.33908522	-125.49418	0.021866239	136.12186	0.021810926	136.15936	0.31626444	-131.14763	
17.51	0.3179577	-125.15988	0.022358307	133.65924	0.022173746	133.62293	0.30012917	-131.18082	
17.61	0.29739356	-124.07004	0.022641724	130.50131	0.022722677	130.62501	0.28526054	-131.82258	
17.71	0.28078405	-123.15362	0.022936104	127.43923	0.022796578	127.46853	0.26862029	-132.7208	
17.81	0.260601	-123.86107	0.023156214	123.66316	0.023017998	123.63576	0.25364192	-133.80197	
17.91	0.23734139	-123.47835	0.022525406	119.11651	0.022396112	119.24991	0.23247982	-135.00954	
18.01	0.21899284	-121.54285	0.021223549	116.89965	0.021182047	116.94317	0.21411215	-138.51312	
18.11	0.20953617	-122.08345	0.020517898	117.4084	0.020524985	117.06831	0.19601586	-141.36266	
18.21	0.19861074	-125.7726	0.020641308	117.58754	0.020629426	117.59115	0.17692737	-147.07977	
18.31	0.1822591	-131.3106	0.021054933	117.14463	0.020965437	117.05333	0.158837	-152.74322	
18.41	0.16204404	-139.15291	0.021639634	116.01472	0.021540209	116.21802	0.14358069	-163.93147	
18.51	0.1430179	-147.97225	0.022581035	114.68198	0.022557649	114.90228	0.14002329	-172.85207	
18.61	0.13125484	-159.30546	0.023458149	111.69824	0.023388036	111.82594	0.13435215	175.46245	
18.71	0.12813733	-171.88137	0.023990455	108.44657	0.02396837	108.41467	0.13645173	163.94926	
18.81	0.13068925	170.73885	0.02431558	104.64716	0.024201075	104.70987	0.14584778	149.97248	
18.91	0.14497635	154.91307	0.024597995	101.30137	0.024501898	101.19868	0.16598692	141.59808	
19.01	0.16127508	142.15388	0.024714131	97.911361	0.024583588	97.940655	0.18283073	133.81339	
19.11	0.17749208	131.75592	0.024862965	94.651456	0.02479151	94.676747	0.20698244	128.30598	
19.21	0.1997858	126.75441	0.024953925	91.004009	0.024896532	91.159909	0.22936589	123.53233	
19.31	0.22661003	123.93215	0.024899628	87.377374	0.024862389	87.466074	0.25755029	120.02677	
19.41	0.25794583	121.29036	0.02462964	84.106805	0.024604133	84.001505	0.28210001	117.35213	
19.51	0.28967662	118.38777	0.024273636	80.803015	0.024296003	80.490215	0.30943122	115.25457	
19.61	0.32151273	116.03295	0.023815706	77.378326	0.023733593	77.471942	0.33462373	114.09697	
19.71	0.35027799	113.9124	0.023291892	74.808697	0.023372473	75.072292	0.35739623	113.30212	
19.81	0.37639542	112.05442	0.023063291	73.380332	0.022970551	73.213843	0.37938818	112.1441	
19.91	0.39681427	111.32994	0.022813665	70.795886	0.022882051	70.882277	0.40440877	111.62416	
20.01	0.41634108	111.47181	0.0226883	68.873752	0.022672633	69.308252	0.42644888	111.60362	
